<?xml version="1.0" encoding="UTF-8"?>

<!-- generated on 2026-07-10T18:10:34.948938+09:00 by Eclipse SUMO sumo 1.27.1
<sumoConfiguration xmlns:xsi="http://www.w3.org/2001/XMLSchema-instance" xsi:noNamespaceSchemaLocation="http://sumo.dlr.de/xsd/sumoConfiguration.xsd">

    <input>
        <net-file value="/home/andy/Downloads/GDOT/sumotwin/7065.net.xml"/>
        <route-files value="/home/andy/Downloads/GDOT/rlagent/../sumodemand/0507.rou.xml"/>
    </input>

    <output>
        <tripinfo-output value="/home/andy/Downloads/GDOT/rlagent/results/tripinfo_rl_0507.xml"/>
    </output>

    <time>
        <begin value="25200"/>
        <end value="36000"/>
    </time>

    <processing>
        <time-to-teleport value="300"/>
    </processing>

    <report>
        <no-warnings value="true"/>
        <duration-log.disable value="true"/>
        <no-step-log value="true"/>
    </report>

    <traci_server>
        <remote-port value="33279"/>
    </traci_server>

    <random_number>
        <seed value="9999"/>
    </random_number>

</sumoConfiguration>
-->

<tripinfos xmlns:xsi="http://www.w3.org/2001/XMLSchema-instance" xsi:noNamespaceSchemaLocation="http://sumo.dlr.de/xsd/tripinfo_file.xsd">
    <tripinfo id="0507_sb_thru_25200.0" depart="25200.00" departLane="N_far_1" departPos="5.10" departSpeed="15.60" departDelay="0.00" arrival="25219.00" arrivalLane="S_out_0" arrivalPos="49.20" arrivalSpeed="14.80" duration="19.00" routeLength="137.80" waitingTime="3.00" waitingCount="1" stopTime="0.00" timeLoss="9.59" rerouteNo="0" devices="tripinfo_0507_sb_thru_25200.0" vType="DEFAULT_VEHTYPE" speedFactor="1.03" vaporized=""/>
    <tripinfo id="0507_sb_left_25200.0" depart="25200.00" departLane="N_far_2" departPos="5.10" departSpeed="13.74" departDelay="0.00" arrival="25223.00" arrivalLane="NE_out_2" arrivalPos="94.79" arrivalSpeed="13.24" duration="23.00" routeLength="173.67" waitingTime="2.00" waitingCount="1" stopTime="0.00" timeLoss="8.81" rerouteNo="0" devices="tripinfo_0507_sb_left_25200.0" vType="DEFAULT_VEHTYPE" speedFactor="0.88" vaporized=""/>
    <tripinfo id="0507_nb_left_25200.0" depart="25200.00" departLane="S_in_3" departPos="5.10" departSpeed="14.35" departDelay="0.00" arrival="25232.00" arrivalLane="SW_out_2" arrivalPos="89.18" arrivalSpeed="14.30" duration="32.00" routeLength="163.88" waitingTime="13.00" waitingCount="1" stopTime="0.00" timeLoss="18.89" rerouteNo="0" devices="tripinfo_0507_nb_left_25200.0" vType="DEFAULT_VEHTYPE" speedFactor="0.92" vaporized=""/>
    <tripinfo id="0507_nb_thru_25200.0" depart="25200.00" departLane="S_in_1" departPos="5.10" departSpeed="15.60" departDelay="0.00" arrival="25239.00" arrivalLane="N_out_0" arrivalPos="8.47" arrivalSpeed="13.33" duration="39.00" routeLength="92.80" waitingTime="27.00" waitingCount="1" stopTime="0.00" timeLoss="32.98" rerouteNo="0" devices="tripinfo_0507_nb_thru_25200.0" vType="DEFAULT_VEHTYPE" speedFactor="1.05" vaporized=""/>
    <tripinfo id="0507_nb_thru_25200.1" depart="25212.00" departLane="S_in_2" departPos="5.10" departSpeed="15.60" departDelay="0.89" arrival="25239.00" arrivalLane="N_out_1" arrivalPos="8.47" arrivalSpeed="13.53" duration="27.00" routeLength="92.80" waitingTime="14.00" waitingCount="1" stopTime="0.00" timeLoss="21.61" rerouteNo="0" devices="tripinfo_0507_nb_thru_25200.1" vType="DEFAULT_VEHTYPE" speedFactor="1.14" vaporized=""/>
    <tripinfo id="0507_sb_thru_25200.1" depart="25209.00" departLane="N_far_1" departPos="5.10" departSpeed="15.60" departDelay="0.67" arrival="25242.00" arrivalLane="S_out_0" arrivalPos="49.20" arrivalSpeed="15.96" duration="33.00" routeLength="137.80" waitingTime="17.00" waitingCount="1" stopTime="0.00" timeLoss="23.97" rerouteNo="0" devices="tripinfo_0507_sb_thru_25200.1" vType="DEFAULT_VEHTYPE" speedFactor="1.07" vaporized=""/>
    <tripinfo id="0507_sb_thru_25200.2" depart="25217.00" departLane="N_far_1" departPos="5.10" departSpeed="15.26" departDelay="0.33" arrival="25242.00" arrivalLane="S_out_1" arrivalPos="49.20" arrivalSpeed="14.26" duration="25.00" routeLength="137.80" waitingTime="5.00" waitingCount="1" stopTime="0.00" timeLoss="15.47" rerouteNo="0" devices="tripinfo_0507_sb_thru_25200.2" vType="DEFAULT_VEHTYPE" speedFactor="0.98" vaporized=""/>
    <tripinfo id="0507_wb_left_25200.0" depart="25200.00" departLane="NE_in_3" departPos="5.10" departSpeed="15.50" departDelay="0.00" arrival="25252.00" arrivalLane="S_out_0" arrivalPos="49.20" arrivalSpeed="15.12" duration="52.00" routeLength="174.95" waitingTime="34.00" waitingCount="1" stopTime="0.00" timeLoss="39.58" rerouteNo="0" devices="tripinfo_0507_wb_left_25200.0" vType="DEFAULT_VEHTYPE" speedFactor="0.99" vaporized=""/>
    <tripinfo id="0507_wb_thru_25200.0" depart="25200.00" departLane="NE_in_0" departPos="5.10" departSpeed="15.60" departDelay="0.00" arrival="25253.00" arrivalLane="SW_out_0" arrivalPos="89.18" arrivalSpeed="16.66" duration="53.00" routeLength="208.55" waitingTime="34.00" waitingCount="1" stopTime="0.00" timeLoss="40.75" rerouteNo="0" devices="tripinfo_0507_wb_thru_25200.0" vType="DEFAULT_VEHTYPE" speedFactor="1.10" vaporized=""/>
    <tripinfo id="0507_wb_thru_25200.1" depart="25214.00" departLane="NE_in_0" departPos="5.10" departSpeed="14.36" departDelay="0.36" arrival="25254.00" arrivalLane="SW_out_1" arrivalPos="89.18" arrivalSpeed="13.23" duration="40.00" routeLength="208.55" waitingTime="16.00" waitingCount="1" stopTime="0.00" timeLoss="25.01" rerouteNo="0" devices="tripinfo_0507_wb_thru_25200.1" vType="DEFAULT_VEHTYPE" speedFactor="0.92" vaporized=""/>
    <tripinfo id="0507_nb_left_25200.1" depart="25234.00" departLane="S_in_3" departPos="5.10" departSpeed="15.60" departDelay="0.67" arrival="25264.00" arrivalLane="SW_out_2" arrivalPos="89.18" arrivalSpeed="15.70" duration="30.00" routeLength="163.88" waitingTime="12.00" waitingCount="1" stopTime="0.00" timeLoss="18.61" rerouteNo="0" devices="tripinfo_0507_nb_left_25200.1" vType="DEFAULT_VEHTYPE" speedFactor="1.04" vaporized=""/>
    <tripinfo id="0507_sb_left_25200.1" depart="25228.00" departLane="N_far_2" departPos="5.10" departSpeed="14.34" departDelay="0.73" arrival="25265.00" arrivalLane="NE_out_2" arrivalPos="94.79" arrivalSpeed="13.65" duration="37.00" routeLength="173.67" waitingTime="18.00" waitingCount="1" stopTime="0.00" timeLoss="23.47" rerouteNo="0" devices="tripinfo_0507_sb_left_25200.1" vType="DEFAULT_VEHTYPE" speedFactor="0.92" vaporized=""/>
    <tripinfo id="0507_nb_left_25200.2" depart="25267.00" departLane="S_in_3" departPos="5.10" departSpeed="15.60" departDelay="0.33" arrival="25278.00" arrivalLane="SW_out_2" arrivalPos="89.18" arrivalSpeed="18.30" duration="11.00" routeLength="163.88" waitingTime="0.00" waitingCount="0" stopTime="0.00" timeLoss="0.94" rerouteNo="0" devices="tripinfo_0507_nb_left_25200.2" vType="DEFAULT_VEHTYPE" speedFactor="1.18" vaporized=""/>
    <tripinfo id="0507_nb_thru_25200.2" depart="25223.00" departLane="S_in_1" departPos="5.10" departSpeed="0.00" departDelay="0.78" arrival="25306.00" arrivalLane="N_out_0" arrivalPos="8.47" arrivalSpeed="14.78" duration="83.00" routeLength="92.80" waitingTime="64.00" waitingCount="2" stopTime="0.00" timeLoss="76.59" rerouteNo="0" devices="tripinfo_0507_nb_thru_25200.2" vType="DEFAULT_VEHTYPE" speedFactor="0.99" vaporized=""/>
    <tripinfo id="0507_nb_thru_25200.3" depart="25234.00" departLane="S_in_1" departPos="5.10" departSpeed="2.21" departDelay="0.67" arrival="25306.00" arrivalLane="N_out_1" arrivalPos="8.47" arrivalSpeed="15.00" duration="72.00" routeLength="92.80" waitingTime="56.00" waitingCount="1" stopTime="0.00" timeLoss="65.38" rerouteNo="0" devices="tripinfo_0507_nb_thru_25200.3" vType="DEFAULT_VEHTYPE" speedFactor="0.99" vaporized=""/>
    <tripinfo id="0507_sb_thru_25200.3" depart="25225.00" departLane="N_far_1" departPos="5.10" departSpeed="15.60" departDelay="0.00" arrival="25309.00" arrivalLane="S_out_0" arrivalPos="49.20" arrivalSpeed="15.32" duration="84.00" routeLength="137.80" waitingTime="66.00" waitingCount="2" stopTime="0.00" timeLoss="74.93" rerouteNo="0" devices="tripinfo_0507_sb_thru_25200.3" vType="DEFAULT_VEHTYPE" speedFactor="1.04" vaporized=""/>
    <tripinfo id="0507_sb_thru_25200.4" depart="25234.00" departLane="N_far_1" departPos="5.10" departSpeed="15.21" departDelay="0.67" arrival="25309.00" arrivalLane="S_out_1" arrivalPos="49.20" arrivalSpeed="15.19" duration="75.00" routeLength="137.80" waitingTime="57.00" waitingCount="1" stopTime="0.00" timeLoss="65.56" rerouteNo="0" devices="tripinfo_0507_sb_thru_25200.4" vType="DEFAULT_VEHTYPE" speedFactor="1.01" vaporized=""/>
    <tripinfo id="0507_sb_thru_25200.6" depart="25250.00" departLane="N_far_1" departPos="5.10" departSpeed="14.82" departDelay="0.00" arrival="25310.00" arrivalLane="S_out_1" arrivalPos="49.20" arrivalSpeed="15.43" duration="60.00" routeLength="137.80" waitingTime="42.00" waitingCount="1" stopTime="0.00" timeLoss="52.61" rerouteNo="0" devices="tripinfo_0507_sb_thru_25200.6" vType="DEFAULT_VEHTYPE" speedFactor="1.20" vaporized=""/>
    <tripinfo id="0507_sb_thru_25200.5" depart="25242.00" departLane="N_far_1" departPos="5.10" departSpeed="15.60" departDelay="0.34" arrival="25311.00" arrivalLane="S_out_0" arrivalPos="49.20" arrivalSpeed="16.63" duration="69.00" routeLength="137.80" waitingTime="53.00" waitingCount="1" stopTime="0.00" timeLoss="60.73" rerouteNo="0" devices="tripinfo_0507_sb_thru_25200.5" vType="DEFAULT_VEHTYPE" speedFactor="1.11" vaporized=""/>
    <tripinfo id="0507_sb_left_25200.2" depart="25255.00" departLane="N_far_2" departPos="5.10" departSpeed="13.66" departDelay="0.46" arrival="25323.00" arrivalLane="NE_out_2" arrivalPos="94.79" arrivalSpeed="14.90" duration="68.00" routeLength="173.67" waitingTime="44.00" waitingCount="2" stopTime="0.00" timeLoss="55.39" rerouteNo="0" devices="tripinfo_0507_sb_left_25200.2" vType="DEFAULT_VEHTYPE" speedFactor="1.01" vaporized=""/>
    <tripinfo id="0507_nb_left_25200.3" depart="25300.00" departLane="S_in_3" departPos="5.10" departSpeed="13.62" departDelay="0.00" arrival="25323.00" arrivalLane="SW_out_2" arrivalPos="89.18" arrivalSpeed="12.55" duration="23.00" routeLength="163.88" waitingTime="4.00" waitingCount="1" stopTime="0.00" timeLoss="9.87" rerouteNo="0" devices="tripinfo_0507_nb_left_25200.3" vType="DEFAULT_VEHTYPE" speedFactor="0.87" vaporized=""/>
    <tripinfo id="0507_sb_left_25200.3" depart="25282.00" departLane="N_far_2" departPos="5.10" departSpeed="0.50" departDelay="0.18" arrival="25325.00" arrivalLane="NE_out_2" arrivalPos="94.79" arrivalSpeed="15.39" duration="43.00" routeLength="173.67" waitingTime="15.00" waitingCount="1" stopTime="0.00" timeLoss="30.34" rerouteNo="0" devices="tripinfo_0507_sb_left_25200.3" vType="DEFAULT_VEHTYPE" speedFactor="1.00" vaporized=""/>
    <tripinfo id="0507_nb_left_25200.4" depart="25334.00" departLane="S_in_3" departPos="5.10" departSpeed="14.45" departDelay="0.67" arrival="25348.00" arrivalLane="SW_out_2" arrivalPos="89.18" arrivalSpeed="13.79" duration="14.00" routeLength="163.88" waitingTime="0.00" waitingCount="0" stopTime="0.00" timeLoss="1.28" rerouteNo="0" devices="tripinfo_0507_nb_left_25200.4" vType="DEFAULT_VEHTYPE" speedFactor="0.93" vaporized=""/>
    <tripinfo id="0507_nb_left_25200.5" depart="25367.00" departLane="S_in_3" departPos="5.10" departSpeed="13.69" departDelay="0.34" arrival="25381.00" arrivalLane="SW_out_2" arrivalPos="89.18" arrivalSpeed="12.93" duration="14.00" routeLength="163.88" waitingTime="0.00" waitingCount="0" stopTime="0.00" timeLoss="1.12" rerouteNo="0" devices="tripinfo_0507_nb_left_25200.5" vType="DEFAULT_VEHTYPE" speedFactor="0.88" vaporized=""/>
    <tripinfo id="0507_nb_left_25200.6" depart="25400.00" departLane="S_in_3" departPos="5.10" departSpeed="15.60" departDelay="0.00" arrival="25412.00" arrivalLane="SW_out_2" arrivalPos="89.18" arrivalSpeed="16.46" duration="12.00" routeLength="163.88" waitingTime="0.00" waitingCount="0" stopTime="0.00" timeLoss="1.21" rerouteNo="0" devices="tripinfo_0507_nb_left_25200.6" vType="DEFAULT_VEHTYPE" speedFactor="1.14" vaporized=""/>
    <tripinfo id="0507_nb_left_25200.7" depart="25434.00" departLane="S_in_3" departPos="5.10" departSpeed="15.09" departDelay="0.67" arrival="25448.00" arrivalLane="SW_out_2" arrivalPos="89.18" arrivalSpeed="14.66" duration="14.00" routeLength="163.88" waitingTime="0.00" waitingCount="0" stopTime="0.00" timeLoss="1.31" rerouteNo="0" devices="tripinfo_0507_nb_left_25200.7" vType="DEFAULT_VEHTYPE" speedFactor="0.97" vaporized=""/>
    <tripinfo id="0507_nb_left_25200.8" depart="25467.00" departLane="S_in_3" departPos="5.10" departSpeed="15.18" departDelay="0.34" arrival="25481.00" arrivalLane="SW_out_2" arrivalPos="89.18" arrivalSpeed="14.37" duration="14.00" routeLength="163.88" waitingTime="0.00" waitingCount="0" stopTime="0.00" timeLoss="1.45" rerouteNo="0" devices="tripinfo_0507_nb_left_25200.8" vType="DEFAULT_VEHTYPE" speedFactor="0.97" vaporized=""/>
    <tripinfo id="0507_eb_left_25200.0" depart="25200.00" departLane="SW_in_3" departPos="5.10" departSpeed="15.25" departDelay="0.00" arrival="25510.00" arrivalLane="N_out_0" arrivalPos="8.47" arrivalSpeed="15.18" duration="310.00" routeLength="92.55" waitingTime="301.00" waitingCount="1" stopTime="0.00" timeLoss="303.56" rerouteNo="0" devices="tripinfo_0507_eb_left_25200.0" vType="DEFAULT_VEHTYPE" speedFactor="0.98" vaporized=""/>
    <tripinfo id="0507_nb_left_25500.0" depart="25500.00" departLane="S_in_3" departPos="5.10" departSpeed="15.60" departDelay="0.00" arrival="25511.00" arrivalLane="SW_out_2" arrivalPos="89.18" arrivalSpeed="17.78" duration="11.00" routeLength="163.88" waitingTime="0.00" waitingCount="0" stopTime="0.00" timeLoss="1.02" rerouteNo="0" devices="tripinfo_0507_nb_left_25500.0" vType="DEFAULT_VEHTYPE" speedFactor="1.16" vaporized=""/>
    <tripinfo id="0507_eb_thru_25200.0" depart="25200.00" departLane="SW_in_0" departPos="5.10" departSpeed="13.87" departDelay="0.00" arrival="25517.00" arrivalLane="NE_out_0" arrivalPos="94.79" arrivalSpeed="12.62" duration="317.00" routeLength="178.87" waitingTime="301.00" waitingCount="1" stopTime="0.00" timeLoss="304.39" rerouteNo="0" devices="tripinfo_0507_eb_thru_25200.0" vType="DEFAULT_VEHTYPE" speedFactor="0.89" vaporized=""/>
    <tripinfo id="0507_eb_thru_25200.1" depart="25207.00" departLane="SW_in_1" departPos="5.10" departSpeed="15.60" departDelay="0.02" arrival="25523.00" arrivalLane="NE_out_0" arrivalPos="94.79" arrivalSpeed="16.03" duration="316.00" routeLength="178.87" waitingTime="301.00" waitingCount="1" stopTime="0.00" timeLoss="305.13" rerouteNo="0" devices="tripinfo_0507_eb_thru_25200.1" vType="DEFAULT_VEHTYPE" speedFactor="1.05" vaporized=""/>
    <tripinfo id="0507_sb_thru_25200.7" depart="25259.00" departLane="N_far_1" departPos="5.10" departSpeed="14.82" departDelay="0.67" arrival="25534.00" arrivalLane="S_out_0" arrivalPos="49.20" arrivalSpeed="14.59" duration="275.00" routeLength="137.80" waitingTime="255.00" waitingCount="2" stopTime="0.00" timeLoss="265.30" rerouteNo="0" devices="tripinfo_0507_sb_thru_25200.7" vType="DEFAULT_VEHTYPE" speedFactor="0.97" vaporized=""/>
    <tripinfo id="0507_sb_thru_25200.9" depart="25275.00" departLane="N_far_1" departPos="5.10" departSpeed="0.00" departDelay="0.00" arrival="25534.00" arrivalLane="S_out_1" arrivalPos="49.20" arrivalSpeed="16.31" duration="259.00" routeLength="137.80" waitingTime="235.00" waitingCount="2" stopTime="0.00" timeLoss="250.07" rerouteNo="0" devices="tripinfo_0507_sb_thru_25200.9" vType="DEFAULT_VEHTYPE" speedFactor="1.08" vaporized=""/>
    <tripinfo id="0507_sb_thru_25200.11" depart="25292.00" departLane="N_far_2" departPos="5.10" departSpeed="0.00" departDelay="0.34" arrival="25535.00" arrivalLane="S_out_1" arrivalPos="49.20" arrivalSpeed="17.04" duration="243.00" routeLength="137.80" waitingTime="217.00" waitingCount="2" stopTime="0.00" timeLoss="234.95" rerouteNo="0" devices="tripinfo_0507_sb_thru_25200.11" vType="DEFAULT_VEHTYPE" speedFactor="1.11" vaporized=""/>
    <tripinfo id="0507_sb_thru_25200.8" depart="25267.00" departLane="N_far_1" departPos="5.10" departSpeed="12.75" departDelay="0.34" arrival="25536.00" arrivalLane="S_out_0" arrivalPos="49.20" arrivalSpeed="17.29" duration="269.00" routeLength="137.80" waitingTime="245.00" waitingCount="2" stopTime="0.00" timeLoss="260.20" rerouteNo="0" devices="tripinfo_0507_sb_thru_25200.8" vType="DEFAULT_VEHTYPE" speedFactor="1.12" vaporized=""/>
    <tripinfo id="0507_eb_thru_25200.3" depart="25221.00" departLane="SW_in_0" departPos="5.10" departSpeed="6.94" departDelay="0.07" arrival="25538.00" arrivalLane="NE_out_0" arrivalPos="94.79" arrivalSpeed="13.87" duration="317.00" routeLength="178.87" waitingTime="301.00" waitingCount="1" stopTime="0.00" timeLoss="304.36" rerouteNo="0" devices="tripinfo_0507_eb_thru_25200.3" vType="DEFAULT_VEHTYPE" speedFactor="0.89" vaporized=""/>
    <tripinfo id="0507_sb_left_25200.4" depart="25313.00" departLane="N_far_2" departPos="5.10" departSpeed="11.02" departDelay="3.91" arrival="25547.00" arrivalLane="NE_out_2" arrivalPos="94.79" arrivalSpeed="14.68" duration="234.00" routeLength="173.67" waitingTime="211.00" waitingCount="2" stopTime="0.00" timeLoss="221.91" rerouteNo="0" devices="tripinfo_0507_sb_left_25200.4" vType="DEFAULT_VEHTYPE" speedFactor="1.02" vaporized=""/>
    <tripinfo id="0507_eb_left_25200.1" depart="25243.00" departLane="SW_in_4" departPos="5.10" departSpeed="15.54" departDelay="0.14" arrival="25553.00" arrivalLane="N_out_0" arrivalPos="8.47" arrivalSpeed="14.83" duration="310.00" routeLength="92.55" waitingTime="301.00" waitingCount="1" stopTime="0.00" timeLoss="303.70" rerouteNo="0" devices="tripinfo_0507_eb_left_25200.1" vType="DEFAULT_VEHTYPE" speedFactor="1.00" vaporized=""/>
    <tripinfo id="0507_wb_thru_25200.2" depart="25228.00" departLane="NE_in_0" departPos="5.10" departSpeed="15.60" departDelay="0.73" arrival="25554.00" arrivalLane="SW_out_0" arrivalPos="89.18" arrivalSpeed="17.06" duration="326.00" routeLength="178.49" waitingTime="307.00" waitingCount="2" stopTime="0.00" timeLoss="315.14" rerouteNo="0" devices="tripinfo_0507_wb_thru_25200.2" vType="DEFAULT_VEHTYPE" speedFactor="1.12" vaporized=""/>
    <tripinfo id="0507_nb_left_25500.1" depart="25543.00" departLane="S_in_3" departPos="5.10" departSpeed="15.60" departDelay="0.14" arrival="25554.00" arrivalLane="SW_out_2" arrivalPos="89.18" arrivalSpeed="17.69" duration="11.00" routeLength="163.88" waitingTime="0.00" waitingCount="0" stopTime="0.00" timeLoss="1.22" rerouteNo="0" devices="tripinfo_0507_nb_left_25500.1" vType="DEFAULT_VEHTYPE" speedFactor="1.18" vaporized=""/>
    <tripinfo id="0507_wb_thru_25200.3" depart="25241.00" departLane="NE_in_0" departPos="5.10" departSpeed="15.06" departDelay="0.09" arrival="25558.00" arrivalLane="SW_out_1" arrivalPos="89.18" arrivalSpeed="13.84" duration="317.00" routeLength="178.49" waitingTime="301.00" waitingCount="1" stopTime="0.00" timeLoss="305.45" rerouteNo="0" devices="tripinfo_0507_wb_thru_25200.3" vType="DEFAULT_VEHTYPE" speedFactor="0.97" vaporized=""/>
    <tripinfo id="0507_sb_thru_25200.10" depart="25284.00" departLane="N_far_1" departPos="5.10" departSpeed="0.00" departDelay="0.67" arrival="25577.00" arrivalLane="S_out_0" arrivalPos="49.20" arrivalSpeed="13.60" duration="293.00" routeLength="137.80" waitingTime="265.00" waitingCount="3" stopTime="0.00" timeLoss="283.03" rerouteNo="0" devices="tripinfo_0507_sb_thru_25200.10" vType="DEFAULT_VEHTYPE" speedFactor="0.94" vaporized=""/>
    <tripinfo id="0507_sb_thru_25200.13" depart="25311.00" departLane="N_far_2" departPos="5.10" departSpeed="12.84" departDelay="2.67" arrival="25577.00" arrivalLane="S_out_1" arrivalPos="49.20" arrivalSpeed="14.56" duration="266.00" routeLength="137.80" waitingTime="245.00" waitingCount="2" stopTime="0.00" timeLoss="256.39" rerouteNo="0" devices="tripinfo_0507_sb_thru_25200.13" vType="DEFAULT_VEHTYPE" speedFactor="1.00" vaporized=""/>
    <tripinfo id="0507_sb_thru_25200.12" depart="25300.00" departLane="N_far_1" departPos="5.10" departSpeed="0.00" departDelay="0.00" arrival="25579.00" arrivalLane="S_out_0" arrivalPos="49.20" arrivalSpeed="14.19" duration="279.00" routeLength="137.80" waitingTime="251.00" waitingCount="2" stopTime="0.00" timeLoss="269.03" rerouteNo="0" devices="tripinfo_0507_sb_thru_25200.12" vType="DEFAULT_VEHTYPE" speedFactor="0.94" vaporized=""/>
    <tripinfo id="0507_sb_thru_25200.15" depart="25325.00" departLane="N_far_1" departPos="5.10" departSpeed="0.01" departDelay="0.01" arrival="25579.00" arrivalLane="S_out_1" arrivalPos="49.20" arrivalSpeed="11.10" duration="254.00" routeLength="137.80" waitingTime="229.00" waitingCount="2" stopTime="0.00" timeLoss="242.54" rerouteNo="0" devices="tripinfo_0507_sb_thru_25200.15" vType="DEFAULT_VEHTYPE" speedFactor="0.78" vaporized=""/>
    <tripinfo id="0507_sb_thru_25200.14" depart="25317.00" departLane="N_far_1" departPos="5.10" departSpeed="0.00" departDelay="0.34" arrival="25581.00" arrivalLane="S_out_0" arrivalPos="49.20" arrivalSpeed="13.83" duration="264.00" routeLength="137.80" waitingTime="239.00" waitingCount="2" stopTime="0.00" timeLoss="253.77" rerouteNo="0" devices="tripinfo_0507_sb_thru_25200.14" vType="DEFAULT_VEHTYPE" speedFactor="0.94" vaporized=""/>
    <tripinfo id="0507_sb_thru_25200.16" depart="25334.00" departLane="N_far_1" departPos="5.10" departSpeed="0.00" departDelay="0.67" arrival="25582.00" arrivalLane="S_out_0" arrivalPos="49.20" arrivalSpeed="14.17" duration="248.00" routeLength="137.80" waitingTime="223.00" waitingCount="2" stopTime="0.00" timeLoss="238.78" rerouteNo="0" devices="tripinfo_0507_sb_thru_25200.16" vType="DEFAULT_VEHTYPE" speedFactor="0.97" vaporized=""/>
    <tripinfo id="0507_sb_thru_25200.21" depart="25535.00" departLane="N_far_2" departPos="5.10" departSpeed="6.90" departDelay="160.01" arrival="25583.00" arrivalLane="S_out_1" arrivalPos="49.20" arrivalSpeed="15.94" duration="48.00" routeLength="137.80" waitingTime="30.00" waitingCount="1" stopTime="0.00" timeLoss="39.00" rerouteNo="0" devices="tripinfo_0507_sb_thru_25200.21" vType="DEFAULT_VEHTYPE" speedFactor="1.09" vaporized=""/>
    <tripinfo id="0507_sb_left_25200.5" depart="25337.00" departLane="N_far_2" departPos="5.10" departSpeed="0.00" departDelay="0.64" arrival="25584.00" arrivalLane="NE_out_2" arrivalPos="94.79" arrivalSpeed="13.88" duration="247.00" routeLength="173.67" waitingTime="219.00" waitingCount="2" stopTime="0.00" timeLoss="233.40" rerouteNo="0" devices="tripinfo_0507_sb_left_25200.5" vType="DEFAULT_VEHTYPE" speedFactor="0.93" vaporized=""/>
    <tripinfo id="0507_sb_thru_25200.17" depart="25342.00" departLane="N_far_1" departPos="5.10" departSpeed="0.00" departDelay="0.34" arrival="25584.00" arrivalLane="S_out_0" arrivalPos="49.20" arrivalSpeed="19.43" duration="242.00" routeLength="137.80" waitingTime="219.00" waitingCount="2" stopTime="0.00" timeLoss="234.83" rerouteNo="0" devices="tripinfo_0507_sb_thru_25200.17" vType="DEFAULT_VEHTYPE" speedFactor="1.31" vaporized=""/>
    <tripinfo id="0507_sb_thru_25200.22" depart="25537.00" departLane="N_far_2" departPos="5.10" departSpeed="3.23" departDelay="153.67" arrival="25585.00" arrivalLane="S_out_1" arrivalPos="49.20" arrivalSpeed="16.40" duration="48.00" routeLength="137.80" waitingTime="30.00" waitingCount="1" stopTime="0.00" timeLoss="39.41" rerouteNo="0" devices="tripinfo_0507_sb_thru_25200.22" vType="DEFAULT_VEHTYPE" speedFactor="1.10" vaporized=""/>
    <tripinfo id="0507_sb_thru_25200.18" depart="25535.00" departLane="N_far_1" departPos="5.10" departSpeed="2.86" departDelay="185.01" arrival="25586.00" arrivalLane="S_out_0" arrivalPos="49.20" arrivalSpeed="14.70" duration="51.00" routeLength="137.80" waitingTime="31.00" waitingCount="1" stopTime="0.00" timeLoss="41.92" rerouteNo="0" devices="tripinfo_0507_sb_thru_25200.18" vType="DEFAULT_VEHTYPE" speedFactor="1.03" vaporized=""/>
    <tripinfo id="0507_sb_left_25200.6" depart="25364.00" departLane="N_far_2" departPos="5.10" departSpeed="0.00" departDelay="0.37" arrival="25586.00" arrivalLane="NE_out_2" arrivalPos="94.79" arrivalSpeed="15.44" duration="222.00" routeLength="173.67" waitingTime="196.00" waitingCount="2" stopTime="0.00" timeLoss="208.97" rerouteNo="0" devices="tripinfo_0507_sb_left_25200.6" vType="DEFAULT_VEHTYPE" speedFactor="1.00" vaporized=""/>
    <tripinfo id="0507_sb_thru_25200.20" depart="25540.00" departLane="N_far_2" departPos="5.10" departSpeed="0.34" departDelay="173.34" arrival="25587.00" arrivalLane="S_out_1" arrivalPos="49.20" arrivalSpeed="14.56" duration="47.00" routeLength="137.80" waitingTime="28.00" waitingCount="1" stopTime="0.00" timeLoss="37.58" rerouteNo="0" devices="tripinfo_0507_sb_thru_25200.20" vType="DEFAULT_VEHTYPE" speedFactor="1.00" vaporized=""/>
    <tripinfo id="0507_wb_thru_25200.5" depart="25269.00" departLane="NE_in_0" departPos="5.10" departSpeed="14.14" departDelay="0.82" arrival="25588.00" arrivalLane="SW_out_0" arrivalPos="89.18" arrivalSpeed="12.96" duration="319.00" routeLength="178.49" waitingTime="301.00" waitingCount="1" stopTime="0.00" timeLoss="306.23" rerouteNo="0" devices="tripinfo_0507_wb_thru_25200.5" vType="DEFAULT_VEHTYPE" speedFactor="0.91" vaporized=""/>
    <tripinfo id="0507_sb_thru_25200.19" depart="25538.00" departLane="N_far_1" departPos="5.10" departSpeed="0.73" departDelay="179.67" arrival="25589.00" arrivalLane="S_out_0" arrivalPos="49.20" arrivalSpeed="13.29" duration="51.00" routeLength="137.80" waitingTime="30.00" waitingCount="1" stopTime="0.00" timeLoss="40.13" rerouteNo="0" devices="tripinfo_0507_sb_thru_25200.19" vType="DEFAULT_VEHTYPE" speedFactor="0.88" vaporized=""/>
    <tripinfo id="0507_sb_thru_25200.23" depart="25578.00" departLane="N_far_1" departPos="5.10" departSpeed="5.77" departDelay="186.34" arrival="25590.00" arrivalLane="S_out_0" arrivalPos="49.20" arrivalSpeed="14.83" duration="12.00" routeLength="137.80" waitingTime="0.00" waitingCount="0" stopTime="0.00" timeLoss="2.84" rerouteNo="0" devices="tripinfo_0507_sb_thru_25200.23" vType="DEFAULT_VEHTYPE" speedFactor="0.99" vaporized=""/>
    <tripinfo id="0507_sb_thru_25200.24" depart="25580.00" departLane="N_far_2" departPos="5.10" departSpeed="9.00" departDelay="180.01" arrival="25590.00" arrivalLane="S_out_1" arrivalPos="49.20" arrivalSpeed="14.59" duration="10.00" routeLength="137.80" waitingTime="0.00" waitingCount="0" stopTime="0.00" timeLoss="1.00" rerouteNo="0" devices="tripinfo_0507_sb_thru_25200.24" vType="DEFAULT_VEHTYPE" speedFactor="1.01" vaporized=""/>
    <tripinfo id="0507_sb_thru_25200.25" depart="25581.00" departLane="N_far_1" departPos="5.10" departSpeed="9.78" departDelay="172.68" arrival="25592.00" arrivalLane="S_out_0" arrivalPos="49.20" arrivalSpeed="14.85" duration="11.00" routeLength="137.80" waitingTime="0.00" waitingCount="0" stopTime="0.00" timeLoss="1.62" rerouteNo="0" devices="tripinfo_0507_sb_thru_25200.25" vType="DEFAULT_VEHTYPE" speedFactor="1.00" vaporized=""/>
    <tripinfo id="0507_sb_thru_25200.26" depart="25582.00" departLane="N_far_2" departPos="5.10" departSpeed="12.31" departDelay="165.34" arrival="25592.00" arrivalLane="S_out_1" arrivalPos="49.20" arrivalSpeed="18.52" duration="10.00" routeLength="137.80" waitingTime="0.00" waitingCount="0" stopTime="0.00" timeLoss="1.85" rerouteNo="0" devices="tripinfo_0507_sb_thru_25200.26" vType="DEFAULT_VEHTYPE" speedFactor="1.21" vaporized=""/>
    <tripinfo id="0507_wb_left_25200.1" depart="25275.00" departLane="NE_in_3" departPos="5.10" departSpeed="14.62" departDelay="0.00" arrival="25593.00" arrivalLane="S_out_0" arrivalPos="49.20" arrivalSpeed="14.09" duration="318.00" routeLength="138.51" waitingTime="301.00" waitingCount="1" stopTime="0.00" timeLoss="305.92" rerouteNo="0" devices="tripinfo_0507_wb_left_25200.1" vType="DEFAULT_VEHTYPE" speedFactor="0.94" vaporized=""/>
    <tripinfo id="0507_sb_left_25200.7" depart="25577.00" departLane="N_far_2" departPos="5.10" departSpeed="6.09" departDelay="186.10" arrival="25593.00" arrivalLane="NE_out_2" arrivalPos="94.79" arrivalSpeed="14.46" duration="16.00" routeLength="173.67" waitingTime="0.00" waitingCount="0" stopTime="0.00" timeLoss="3.49" rerouteNo="0" devices="tripinfo_0507_sb_left_25200.7" vType="DEFAULT_VEHTYPE" speedFactor="0.99" vaporized=""/>
    <tripinfo id="0507_sb_left_25200.8" depart="25585.00" departLane="N_far_2" departPos="5.10" departSpeed="15.60" departDelay="166.82" arrival="25603.00" arrivalLane="NE_out_2" arrivalPos="94.79" arrivalSpeed="18.44" duration="18.00" routeLength="173.67" waitingTime="1.00" waitingCount="1" stopTime="0.00" timeLoss="8.03" rerouteNo="0" devices="tripinfo_0507_sb_left_25200.8" vType="DEFAULT_VEHTYPE" speedFactor="1.20" vaporized=""/>
    <tripinfo id="0507_nb_left_25500.2" depart="25586.00" departLane="S_in_3" departPos="5.10" departSpeed="15.60" departDelay="0.29" arrival="25604.00" arrivalLane="SW_out_2" arrivalPos="89.18" arrivalSpeed="15.56" duration="18.00" routeLength="163.88" waitingTime="0.00" waitingCount="0" stopTime="0.00" timeLoss="6.55" rerouteNo="0" devices="tripinfo_0507_nb_left_25500.2" vType="DEFAULT_VEHTYPE" speedFactor="1.04" vaporized=""/>
    <tripinfo id="0507_nb_thru_25200.4" depart="25245.00" departLane="S_in_1" departPos="5.10" departSpeed="0.00" departDelay="0.56" arrival="25605.00" arrivalLane="N_out_0" arrivalPos="8.47" arrivalSpeed="11.18" duration="360.00" routeLength="52.57" waitingTime="349.00" waitingCount="2" stopTime="0.00" timeLoss="355.62" rerouteNo="0" devices="tripinfo_0507_nb_thru_25200.4" vType="DEFAULT_VEHTYPE" speedFactor="0.79" vaporized=""/>