<?xml version="1.0" encoding="UTF-8"?>

<!-- generated on 2026-07-10T18:44:06.240412+09:00 by Eclipse SUMO sumo 1.27.1
<sumoConfiguration xmlns:xsi="http://www.w3.org/2001/XMLSchema-instance" xsi:noNamespaceSchemaLocation="http://sumo.dlr.de/xsd/sumoConfiguration.xsd">

    <input>
        <net-file value="/home/andy/Downloads/GDOT/sumotwin/7065.net.xml"/>
        <route-files value="/home/andy/Downloads/GDOT/rlagent/../sumodemand/0507.rou.xml"/>
    </input>

    <output>
        <tripinfo-output value="/home/andy/Downloads/GDOT/rlagent/results/tripinfo_rl_0507.xml"/>
    </output>

    <time>
        <begin value="25200"/>
        <end value="36000"/>
    </time>

    <processing>
        <time-to-teleport value="300"/>
    </processing>

    <report>
        <no-warnings value="true"/>
        <duration-log.disable value="true"/>
        <no-step-log value="true"/>
    </report>

    <traci_server>
        <remote-port value="33301"/>
    </traci_server>

    <random_number>
        <seed value="9999"/>
    </random_number>

</sumoConfiguration>
-->

<tripinfos xmlns:xsi="http://www.w3.org/2001/XMLSchema-instance" xsi:noNamespaceSchemaLocation="http://sumo.dlr.de/xsd/tripinfo_file.xsd">
    <tripinfo id="0507_wb_thru_25200.0" depart="25200.00" departLane="NE_in_0" departPos="5.10" departSpeed="15.60" departDelay="0.00" arrival="25213.00" arrivalLane="SW_out_0" arrivalPos="89.18" arrivalSpeed="16.66" duration="13.00" routeLength="208.55" waitingTime="0.00" waitingCount="0" stopTime="0.00" timeLoss="0.50" rerouteNo="0" devices="tripinfo_0507_wb_thru_25200.0" vType="DEFAULT_VEHTYPE" speedFactor="1.10" vaporized=""/>
    <tripinfo id="0507_wb_left_25200.0" depart="25200.00" departLane="NE_in_3" departPos="5.10" departSpeed="15.50" departDelay="0.00" arrival="25214.00" arrivalLane="S_out_0" arrivalPos="49.20" arrivalSpeed="15.24" duration="14.00" routeLength="174.95" waitingTime="0.00" waitingCount="0" stopTime="0.00" timeLoss="2.25" rerouteNo="0" devices="tripinfo_0507_wb_left_25200.0" vType="DEFAULT_VEHTYPE" speedFactor="0.99" vaporized=""/>
    <tripinfo id="0507_eb_thru_25200.0" depart="25200.00" departLane="SW_in_0" departPos="5.10" departSpeed="13.87" departDelay="0.00" arrival="25216.00" arrivalLane="NE_out_0" arrivalPos="94.79" arrivalSpeed="12.62" duration="16.00" routeLength="208.93" waitingTime="0.00" waitingCount="0" stopTime="0.00" timeLoss="0.78" rerouteNo="0" devices="tripinfo_0507_eb_thru_25200.0" vType="DEFAULT_VEHTYPE" speedFactor="0.89" vaporized=""/>
    <tripinfo id="0507_eb_thru_25200.1" depart="25207.00" departLane="SW_in_0" departPos="5.10" departSpeed="15.60" departDelay="0.02" arrival="25221.00" arrivalLane="NE_out_0" arrivalPos="94.79" arrivalSpeed="16.03" duration="14.00" routeLength="208.93" waitingTime="0.00" waitingCount="0" stopTime="0.00" timeLoss="0.49" rerouteNo="0" devices="tripinfo_0507_eb_thru_25200.1" vType="DEFAULT_VEHTYPE" speedFactor="1.05" vaporized=""/>
    <tripinfo id="0507_eb_thru_25200.2" depart="25214.00" departLane="SW_in_0" departPos="5.10" departSpeed="14.02" departDelay="0.05" arrival="25230.00" arrivalLane="NE_out_0" arrivalPos="94.79" arrivalSpeed="14.01" duration="16.00" routeLength="208.93" waitingTime="0.00" waitingCount="0" stopTime="0.00" timeLoss="0.68" rerouteNo="0" devices="tripinfo_0507_eb_thru_25200.2" vType="DEFAULT_VEHTYPE" speedFactor="0.90" vaporized=""/>
    <tripinfo id="0507_wb_thru_25200.1" depart="25214.00" departLane="NE_in_0" departPos="5.10" departSpeed="14.36" departDelay="0.36" arrival="25230.00" arrivalLane="SW_out_0" arrivalPos="89.18" arrivalSpeed="13.86" duration="16.00" routeLength="208.55" waitingTime="0.00" waitingCount="0" stopTime="0.00" timeLoss="0.61" rerouteNo="0" devices="tripinfo_0507_wb_thru_25200.1" vType="DEFAULT_VEHTYPE" speedFactor="0.92" vaporized=""/>
    <tripinfo id="0507_eb_thru_25200.3" depart="25221.00" departLane="SW_in_0" departPos="5.10" departSpeed="13.87" departDelay="0.07" arrival="25237.00" arrivalLane="NE_out_0" arrivalPos="94.79" arrivalSpeed="12.99" duration="16.00" routeLength="208.93" waitingTime="0.00" waitingCount="0" stopTime="0.00" timeLoss="0.50" rerouteNo="0" devices="tripinfo_0507_eb_thru_25200.3" vType="DEFAULT_VEHTYPE" speedFactor="0.89" vaporized=""/>
    <tripinfo id="0507_wb_thru_25200.2" depart="25228.00" departLane="NE_in_0" departPos="5.10" departSpeed="15.60" departDelay="0.73" arrival="25241.00" arrivalLane="SW_out_0" arrivalPos="89.18" arrivalSpeed="16.13" duration="13.00" routeLength="208.55" waitingTime="0.00" waitingCount="0" stopTime="0.00" timeLoss="0.49" rerouteNo="0" devices="tripinfo_0507_wb_thru_25200.2" vType="DEFAULT_VEHTYPE" speedFactor="1.12" vaporized=""/>
    <tripinfo id="0507_eb_thru_25200.4" depart="25228.00" departLane="SW_in_0" departPos="5.10" departSpeed="14.23" departDelay="0.10" arrival="25244.00" arrivalLane="NE_out_0" arrivalPos="94.79" arrivalSpeed="13.26" duration="16.00" routeLength="208.93" waitingTime="0.00" waitingCount="0" stopTime="0.00" timeLoss="0.81" rerouteNo="0" devices="tripinfo_0507_eb_thru_25200.4" vType="DEFAULT_VEHTYPE" speedFactor="0.91" vaporized=""/>
    <tripinfo id="0507_eb_thru_25200.5" depart="25235.00" departLane="SW_in_0" departPos="5.10" departSpeed="15.18" departDelay="0.12" arrival="25250.00" arrivalLane="NE_out_0" arrivalPos="94.79" arrivalSpeed="15.03" duration="15.00" routeLength="208.93" waitingTime="0.00" waitingCount="0" stopTime="0.00" timeLoss="0.61" rerouteNo="0" devices="tripinfo_0507_eb_thru_25200.5" vType="DEFAULT_VEHTYPE" speedFactor="0.97" vaporized=""/>
    <tripinfo id="0507_wb_thru_25200.3" depart="25241.00" departLane="NE_in_0" departPos="5.10" departSpeed="15.06" departDelay="0.09" arrival="25256.00" arrivalLane="SW_out_0" arrivalPos="89.18" arrivalSpeed="13.94" duration="15.00" routeLength="208.55" waitingTime="0.00" waitingCount="0" stopTime="0.00" timeLoss="0.64" rerouteNo="0" devices="tripinfo_0507_wb_thru_25200.3" vType="DEFAULT_VEHTYPE" speedFactor="0.97" vaporized=""/>
    <tripinfo id="0507_eb_thru_25200.6" depart="25242.00" departLane="SW_in_0" departPos="5.10" departSpeed="15.60" departDelay="0.14" arrival="25256.00" arrivalLane="NE_out_0" arrivalPos="94.79" arrivalSpeed="14.70" duration="14.00" routeLength="208.93" waitingTime="0.00" waitingCount="0" stopTime="0.00" timeLoss="0.56" rerouteNo="0" devices="tripinfo_0507_eb_thru_25200.6" vType="DEFAULT_VEHTYPE" speedFactor="1.01" vaporized=""/>
    <tripinfo id="0507_eb_thru_25200.7" depart="25249.00" departLane="SW_in_0" departPos="5.10" departSpeed="15.60" departDelay="0.17" arrival="25262.00" arrivalLane="NE_out_0" arrivalPos="94.79" arrivalSpeed="17.72" duration="13.00" routeLength="208.93" waitingTime="0.00" waitingCount="0" stopTime="0.00" timeLoss="0.46" rerouteNo="0" devices="tripinfo_0507_eb_thru_25200.7" vType="DEFAULT_VEHTYPE" speedFactor="1.14" vaporized=""/>
    <tripinfo id="0507_wb_thru_25200.4" depart="25255.00" departLane="NE_in_0" departPos="5.10" departSpeed="15.60" departDelay="0.46" arrival="25268.00" arrivalLane="SW_out_0" arrivalPos="89.18" arrivalSpeed="15.97" duration="13.00" routeLength="208.55" waitingTime="0.00" waitingCount="0" stopTime="0.00" timeLoss="0.56" rerouteNo="0" devices="tripinfo_0507_wb_thru_25200.4" vType="DEFAULT_VEHTYPE" speedFactor="1.09" vaporized=""/>
    <tripinfo id="0507_eb_thru_25200.8" depart="25256.00" departLane="SW_in_0" departPos="5.10" departSpeed="15.60" departDelay="0.19" arrival="25270.00" arrivalLane="NE_out_0" arrivalPos="94.79" arrivalSpeed="16.09" duration="14.00" routeLength="208.93" waitingTime="0.00" waitingCount="0" stopTime="0.00" timeLoss="0.48" rerouteNo="0" devices="tripinfo_0507_eb_thru_25200.8" vType="DEFAULT_VEHTYPE" speedFactor="1.05" vaporized=""/>
    <tripinfo id="0507_eb_thru_25200.9" depart="25263.00" departLane="SW_in_0" departPos="5.10" departSpeed="14.78" departDelay="0.22" arrival="25278.00" arrivalLane="NE_out_0" arrivalPos="94.79" arrivalSpeed="14.12" duration="15.00" routeLength="208.93" waitingTime="0.00" waitingCount="0" stopTime="0.00" timeLoss="0.84" rerouteNo="0" devices="tripinfo_0507_eb_thru_25200.9" vType="DEFAULT_VEHTYPE" speedFactor="0.95" vaporized=""/>
    <tripinfo id="0507_wb_thru_25200.5" depart="25269.00" departLane="NE_in_0" departPos="5.10" departSpeed="14.14" departDelay="0.82" arrival="25285.00" arrivalLane="SW_out_0" arrivalPos="89.18" arrivalSpeed="13.53" duration="16.00" routeLength="208.55" waitingTime="0.00" waitingCount="0" stopTime="0.00" timeLoss="0.76" rerouteNo="0" devices="tripinfo_0507_wb_thru_25200.5" vType="DEFAULT_VEHTYPE" speedFactor="0.91" vaporized=""/>
    <tripinfo id="0507_eb_thru_25200.10" depart="25270.00" departLane="SW_in_0" departPos="5.10" departSpeed="13.86" departDelay="0.24" arrival="25286.00" arrivalLane="NE_out_0" arrivalPos="94.79" arrivalSpeed="13.45" duration="16.00" routeLength="208.93" waitingTime="0.00" waitingCount="0" stopTime="0.00" timeLoss="0.78" rerouteNo="0" devices="tripinfo_0507_eb_thru_25200.10" vType="DEFAULT_VEHTYPE" speedFactor="0.89" vaporized=""/>
    <tripinfo id="0507_wb_left_25200.1" depart="25275.00" departLane="NE_in_3" departPos="5.10" departSpeed="14.62" departDelay="0.00" arrival="25291.00" arrivalLane="S_out_0" arrivalPos="49.20" arrivalSpeed="13.96" duration="16.00" routeLength="174.95" waitingTime="0.00" waitingCount="0" stopTime="0.00" timeLoss="3.14" rerouteNo="0" devices="tripinfo_0507_wb_left_25200.1" vType="DEFAULT_VEHTYPE" speedFactor="0.94" vaporized=""/>
    <tripinfo id="0507_eb_thru_25200.11" depart="25277.00" departLane="SW_in_0" departPos="5.10" departSpeed="15.60" departDelay="0.26" arrival="25291.00" arrivalLane="NE_out_0" arrivalPos="94.79" arrivalSpeed="14.92" duration="14.00" routeLength="208.93" waitingTime="0.00" waitingCount="0" stopTime="0.00" timeLoss="0.62" rerouteNo="0" devices="tripinfo_0507_eb_thru_25200.11" vType="DEFAULT_VEHTYPE" speedFactor="1.01" vaporized=""/>
    <tripinfo id="0507_wb_thru_25200.6" depart="25282.00" departLane="NE_in_0" departPos="5.10" departSpeed="15.60" departDelay="0.18" arrival="25294.00" arrivalLane="SW_out_0" arrivalPos="89.18" arrivalSpeed="17.82" duration="12.00" routeLength="208.55" waitingTime="0.00" waitingCount="0" stopTime="0.00" timeLoss="0.50" rerouteNo="0" devices="tripinfo_0507_wb_thru_25200.6" vType="DEFAULT_VEHTYPE" speedFactor="1.20" vaporized=""/>
    <tripinfo id="0507_eb_thru_25200.12" depart="25284.00" departLane="SW_in_0" departPos="5.10" departSpeed="15.60" departDelay="0.29" arrival="25298.00" arrivalLane="NE_out_0" arrivalPos="94.79" arrivalSpeed="16.18" duration="14.00" routeLength="208.93" waitingTime="0.00" waitingCount="0" stopTime="0.00" timeLoss="0.61" rerouteNo="0" devices="tripinfo_0507_eb_thru_25200.12" vType="DEFAULT_VEHTYPE" speedFactor="1.06" vaporized=""/>
    <tripinfo id="0507_eb_thru_25200.13" depart="25291.00" departLane="SW_in_0" departPos="5.10" departSpeed="15.60" departDelay="0.31" arrival="25304.00" arrivalLane="NE_out_0" arrivalPos="94.79" arrivalSpeed="16.39" duration="13.00" routeLength="208.93" waitingTime="0.00" waitingCount="0" stopTime="0.00" timeLoss="0.50" rerouteNo="0" devices="tripinfo_0507_eb_thru_25200.13" vType="DEFAULT_VEHTYPE" speedFactor="1.08" vaporized=""/>
    <tripinfo id="0507_wb_thru_25200.7" depart="25296.00" departLane="NE_in_0" departPos="5.10" departSpeed="15.60" departDelay="0.55" arrival="25309.00" arrivalLane="SW_out_0" arrivalPos="89.18" arrivalSpeed="16.24" duration="13.00" routeLength="208.55" waitingTime="0.00" waitingCount="0" stopTime="0.00" timeLoss="0.59" rerouteNo="0" devices="tripinfo_0507_wb_thru_25200.7" vType="DEFAULT_VEHTYPE" speedFactor="1.12" vaporized=""/>
    <tripinfo id="0507_eb_thru_25200.14" depart="25298.00" departLane="SW_in_0" departPos="5.10" departSpeed="14.17" departDelay="0.34" arrival="25314.00" arrivalLane="NE_out_0" arrivalPos="94.79" arrivalSpeed="13.46" duration="16.00" routeLength="208.93" waitingTime="0.00" waitingCount="0" stopTime="0.00" timeLoss="0.60" rerouteNo="0" devices="tripinfo_0507_eb_thru_25200.14" vType="DEFAULT_VEHTYPE" speedFactor="0.91" vaporized=""/>
    <tripinfo id="0507_eb_thru_25200.15" depart="25305.00" departLane="SW_in_0" departPos="5.10" departSpeed="12.67" departDelay="0.36" arrival="25323.00" arrivalLane="NE_out_0" arrivalPos="94.79" arrivalSpeed="12.36" duration="18.00" routeLength="208.93" waitingTime="0.00" waitingCount="0" stopTime="0.00" timeLoss="0.89" rerouteNo="0" devices="tripinfo_0507_eb_thru_25200.15" vType="DEFAULT_VEHTYPE" speedFactor="0.81" vaporized=""/>
    <tripinfo id="0507_wb_thru_25200.8" depart="25310.00" departLane="NE_in_0" departPos="5.10" departSpeed="14.58" departDelay="0.91" arrival="25325.00" arrivalLane="SW_out_0" arrivalPos="89.18" arrivalSpeed="14.23" duration="15.00" routeLength="208.55" waitingTime="0.00" waitingCount="0" stopTime="0.00" timeLoss="0.59" rerouteNo="0" devices="tripinfo_0507_wb_thru_25200.8" vType="DEFAULT_VEHTYPE" speedFactor="0.93" vaporized=""/>
    <tripinfo id="0507_eb_thru_25200.16" depart="25312.00" departLane="SW_in_1" departPos="5.10" departSpeed="13.98" departDelay="0.38" arrival="25328.00" arrivalLane="NE_out_1" arrivalPos="94.79" arrivalSpeed="12.84" duration="16.00" routeLength="208.93" waitingTime="0.00" waitingCount="0" stopTime="0.00" timeLoss="0.64" rerouteNo="0" devices="tripinfo_0507_eb_thru_25200.16" vType="DEFAULT_VEHTYPE" speedFactor="0.90" vaporized=""/>
    <tripinfo id="0507_eb_thru_25200.17" depart="25319.00" departLane="SW_in_0" departPos="5.10" departSpeed="15.03" departDelay="0.41" arrival="25334.00" arrivalLane="NE_out_0" arrivalPos="94.79" arrivalSpeed="14.99" duration="15.00" routeLength="208.93" waitingTime="0.00" waitingCount="0" stopTime="0.00" timeLoss="0.65" rerouteNo="0" devices="tripinfo_0507_eb_thru_25200.17" vType="DEFAULT_VEHTYPE" speedFactor="0.96" vaporized=""/>
    <tripinfo id="0507_wb_thru_25200.9" depart="25323.00" departLane="NE_in_0" departPos="5.10" departSpeed="15.60" departDelay="0.28" arrival="25336.00" arrivalLane="SW_out_0" arrivalPos="89.18" arrivalSpeed="16.26" duration="13.00" routeLength="208.55" waitingTime="0.00" waitingCount="0" stopTime="0.00" timeLoss="0.47" rerouteNo="0" devices="tripinfo_0507_wb_thru_25200.9" vType="DEFAULT_VEHTYPE" speedFactor="1.10" vaporized=""/>
    <tripinfo id="0507_eb_thru_25200.18" depart="25326.00" departLane="SW_in_0" departPos="5.10" departSpeed="14.64" departDelay="0.43" arrival="25341.00" arrivalLane="NE_out_0" arrivalPos="94.79" arrivalSpeed="13.48" duration="15.00" routeLength="208.93" waitingTime="0.00" waitingCount="0" stopTime="0.00" timeLoss="0.58" rerouteNo="0" devices="tripinfo_0507_eb_thru_25200.18" vType="DEFAULT_VEHTYPE" speedFactor="0.94" vaporized=""/>
    <tripinfo id="0507_eb_thru_25200.19" depart="25333.00" departLane="SW_in_0" departPos="5.10" departSpeed="15.09" departDelay="0.46" arrival="25348.00" arrivalLane="NE_out_0" arrivalPos="94.79" arrivalSpeed="13.97" duration="15.00" routeLength="208.93" waitingTime="0.00" waitingCount="0" stopTime="0.00" timeLoss="0.59" rerouteNo="0" devices="tripinfo_0507_eb_thru_25200.19" vType="DEFAULT_VEHTYPE" speedFactor="0.97" vaporized=""/>
    <tripinfo id="0507_wb_thru_25200.10" depart="25337.00" departLane="NE_in_0" departPos="5.10" departSpeed="14.31" departDelay="0.64" arrival="25353.00" arrivalLane="SW_out_0" arrivalPos="89.18" arrivalSpeed="13.43" duration="16.00" routeLength="208.55" waitingTime="0.00" waitingCount="0" stopTime="0.00" timeLoss="0.60" rerouteNo="0" devices="tripinfo_0507_wb_thru_25200.10" vType="DEFAULT_VEHTYPE" speedFactor="0.92" vaporized=""/>
    <tripinfo id="0507_eb_thru_25200.20" depart="25340.00" departLane="SW_in_0" departPos="5.10" departSpeed="15.19" departDelay="0.48" arrival="25355.00" arrivalLane="NE_out_0" arrivalPos="94.79" arrivalSpeed="15.11" duration="15.00" routeLength="208.93" waitingTime="0.00" waitingCount="0" stopTime="0.00" timeLoss="0.60" rerouteNo="0" devices="tripinfo_0507_eb_thru_25200.20" vType="DEFAULT_VEHTYPE" speedFactor="0.97" vaporized=""/>
    <tripinfo id="0507_eb_thru_25200.21" depart="25347.00" departLane="SW_in_0" departPos="5.10" departSpeed="15.60" departDelay="0.50" arrival="25360.00" arrivalLane="NE_out_0" arrivalPos="94.79" arrivalSpeed="16.79" duration="13.00" routeLength="208.93" waitingTime="0.00" waitingCount="0" stopTime="0.00" timeLoss="0.52" rerouteNo="0" devices="tripinfo_0507_eb_thru_25200.21" vType="DEFAULT_VEHTYPE" speedFactor="1.12" vaporized=""/>
    <tripinfo id="0507_wb_thru_25200.11" depart="25350.00" departLane="NE_in_0" departPos="5.10" departSpeed="12.48" departDelay="0.00" arrival="25368.00" arrivalLane="SW_out_0" arrivalPos="89.18" arrivalSpeed="12.26" duration="18.00" routeLength="208.55" waitingTime="0.00" waitingCount="0" stopTime="0.00" timeLoss="0.75" rerouteNo="0" devices="tripinfo_0507_wb_thru_25200.11" vType="DEFAULT_VEHTYPE" speedFactor="0.80" vaporized=""/>
    <tripinfo id="0507_wb_left_25200.2" depart="25350.00" departLane="NE_in_3" departPos="5.10" departSpeed="15.37" departDelay="0.00" arrival="25369.00" arrivalLane="S_out_0" arrivalPos="49.20" arrivalSpeed="15.32" duration="19.00" routeLength="174.95" waitingTime="0.00" waitingCount="0" stopTime="0.00" timeLoss="7.24" rerouteNo="0" devices="tripinfo_0507_wb_left_25200.2" vType="DEFAULT_VEHTYPE" speedFactor="0.98" vaporized=""/>
    <tripinfo id="0507_eb_thru_25200.22" depart="25354.00" departLane="SW_in_0" departPos="5.10" departSpeed="15.02" departDelay="0.53" arrival="25369.00" arrivalLane="NE_out_0" arrivalPos="94.79" arrivalSpeed="14.76" duration="15.00" routeLength="208.93" waitingTime="0.00" waitingCount="0" stopTime="0.00" timeLoss="0.56" rerouteNo="0" devices="tripinfo_0507_eb_thru_25200.22" vType="DEFAULT_VEHTYPE" speedFactor="0.96" vaporized=""/>
    <tripinfo id="0507_eb_thru_25200.23" depart="25361.00" departLane="SW_in_0" departPos="5.10" departSpeed="15.60" departDelay="0.55" arrival="25375.00" arrivalLane="NE_out_0" arrivalPos="94.79" arrivalSpeed="16.30" duration="14.00" routeLength="208.93" waitingTime="0.00" waitingCount="0" stopTime="0.00" timeLoss="0.86" rerouteNo="0" devices="tripinfo_0507_eb_thru_25200.23" vType="DEFAULT_VEHTYPE" speedFactor="1.05" vaporized=""/>
    <tripinfo id="0507_wb_thru_25200.12" depart="25364.00" departLane="NE_in_0" departPos="5.10" departSpeed="15.26" departDelay="0.37" arrival="25379.00" arrivalLane="SW_out_0" arrivalPos="89.18" arrivalSpeed="14.55" duration="15.00" routeLength="208.55" waitingTime="0.00" waitingCount="0" stopTime="0.00" timeLoss="0.72" rerouteNo="0" devices="tripinfo_0507_wb_thru_25200.12" vType="DEFAULT_VEHTYPE" speedFactor="0.98" vaporized=""/>
    <tripinfo id="0507_eb_thru_25200.24" depart="25368.00" departLane="SW_in_0" departPos="5.10" departSpeed="15.60" departDelay="0.58" arrival="25381.00" arrivalLane="NE_out_0" arrivalPos="94.79" arrivalSpeed="16.16" duration="13.00" routeLength="208.93" waitingTime="0.00" waitingCount="0" stopTime="0.00" timeLoss="0.50" rerouteNo="0" devices="tripinfo_0507_eb_thru_25200.24" vType="DEFAULT_VEHTYPE" speedFactor="1.08" vaporized=""/>
    <tripinfo id="0507_eb_thru_25200.25" depart="25375.00" departLane="SW_in_0" departPos="5.10" departSpeed="15.60" departDelay="0.60" arrival="25388.00" arrivalLane="NE_out_0" arrivalPos="94.79" arrivalSpeed="17.10" duration="13.00" routeLength="208.93" waitingTime="0.00" waitingCount="0" stopTime="0.00" timeLoss="0.59" rerouteNo="0" devices="tripinfo_0507_eb_thru_25200.25" vType="DEFAULT_VEHTYPE" speedFactor="1.10" vaporized=""/>
    <tripinfo id="0507_wb_thru_25200.13" depart="25378.00" departLane="NE_in_0" departPos="5.10" departSpeed="15.60" departDelay="0.73" arrival="25392.00" arrivalLane="SW_out_0" arrivalPos="89.18" arrivalSpeed="16.16" duration="14.00" routeLength="208.55" waitingTime="0.00" waitingCount="0" stopTime="0.00" timeLoss="0.52" rerouteNo="0" devices="tripinfo_0507_wb_thru_25200.13" vType="DEFAULT_VEHTYPE" speedFactor="1.06" vaporized=""/>
    <tripinfo id="0507_eb_thru_25200.26" depart="25382.00" departLane="SW_in_0" departPos="5.10" departSpeed="14.14" departDelay="0.62" arrival="25398.00" arrivalLane="NE_out_0" arrivalPos="94.79" arrivalSpeed="13.56" duration="16.00" routeLength="208.93" waitingTime="0.00" waitingCount="0" stopTime="0.00" timeLoss="0.87" rerouteNo="0" devices="tripinfo_0507_eb_thru_25200.26" vType="DEFAULT_VEHTYPE" speedFactor="0.91" vaporized=""/>
    <tripinfo id="0507_eb_thru_25200.27" depart="25389.00" departLane="SW_in_0" departPos="5.10" departSpeed="15.60" departDelay="0.65" arrival="25402.00" arrivalLane="NE_out_0" arrivalPos="94.79" arrivalSpeed="17.06" duration="13.00" routeLength="208.93" waitingTime="0.00" waitingCount="0" stopTime="0.00" timeLoss="0.47" rerouteNo="0" devices="tripinfo_0507_eb_thru_25200.27" vType="DEFAULT_VEHTYPE" speedFactor="1.15" vaporized=""/>
    <tripinfo id="0507_wb_thru_25200.14" depart="25391.00" departLane="NE_in_0" departPos="5.10" departSpeed="14.07" departDelay="0.10" arrival="25407.00" arrivalLane="SW_out_0" arrivalPos="89.18" arrivalSpeed="12.80" duration="16.00" routeLength="208.55" waitingTime="0.00" waitingCount="0" stopTime="0.00" timeLoss="0.81" rerouteNo="0" devices="tripinfo_0507_wb_thru_25200.14" vType="DEFAULT_VEHTYPE" speedFactor="0.90" vaporized=""/>
    <tripinfo id="0507_eb_thru_25200.28" depart="25396.00" departLane="SW_in_0" departPos="5.10" departSpeed="15.60" departDelay="0.67" arrival="25410.00" arrivalLane="NE_out_0" arrivalPos="94.79" arrivalSpeed="15.78" duration="14.00" routeLength="208.93" waitingTime="0.00" waitingCount="0" stopTime="0.00" timeLoss="0.53" rerouteNo="0" devices="tripinfo_0507_eb_thru_25200.28" vType="DEFAULT_VEHTYPE" speedFactor="1.02" vaporized=""/>
    <tripinfo id="0507_eb_thru_25200.29" depart="25403.00" departLane="SW_in_0" departPos="5.10" departSpeed="15.60" departDelay="0.70" arrival="25417.00" arrivalLane="NE_out_0" arrivalPos="94.79" arrivalSpeed="15.90" duration="14.00" routeLength="208.93" waitingTime="0.00" waitingCount="0" stopTime="0.00" timeLoss="0.67" rerouteNo="0" devices="tripinfo_0507_eb_thru_25200.29" vType="DEFAULT_VEHTYPE" speedFactor="1.07" vaporized=""/>
    <tripinfo id="0507_wb_thru_25200.15" depart="25405.00" departLane="NE_in_0" departPos="5.10" departSpeed="15.43" departDelay="0.46" arrival="25420.00" arrivalLane="SW_out_0" arrivalPos="89.18" arrivalSpeed="15.36" duration="15.00" routeLength="208.55" waitingTime="0.00" waitingCount="0" stopTime="0.00" timeLoss="0.64" rerouteNo="0" devices="tripinfo_0507_wb_thru_25200.15" vType="DEFAULT_VEHTYPE" speedFactor="0.99" vaporized=""/>
    <tripinfo id="0507_eb_thru_25200.30" depart="25410.00" departLane="SW_in_0" departPos="5.10" departSpeed="13.04" departDelay="0.72" arrival="25428.00" arrivalLane="NE_out_0" arrivalPos="94.79" arrivalSpeed="11.96" duration="18.00" routeLength="208.93" waitingTime="0.00" waitingCount="0" stopTime="0.00" timeLoss="1.12" rerouteNo="0" devices="tripinfo_0507_eb_thru_25200.30" vType="DEFAULT_VEHTYPE" speedFactor="0.84" vaporized=""/>
    <tripinfo id="0507_eb_thru_25200.31" depart="25417.00" departLane="SW_in_0" departPos="5.10" departSpeed="15.60" departDelay="0.74" arrival="25431.00" arrivalLane="NE_out_0" arrivalPos="94.79" arrivalSpeed="15.34" duration="14.00" routeLength="208.93" waitingTime="0.00" waitingCount="0" stopTime="0.00" timeLoss="0.66" rerouteNo="0" devices="tripinfo_0507_eb_thru_25200.31" vType="DEFAULT_VEHTYPE" speedFactor="1.05" vaporized=""/>
    <tripinfo id="0507_wb_thru_25200.16" depart="25419.00" departLane="NE_in_0" departPos="5.10" departSpeed="11.14" departDelay="0.82" arrival="25439.00" arrivalLane="SW_out_0" arrivalPos="89.18" arrivalSpeed="10.80" duration="20.00" routeLength="208.55" waitingTime="0.00" waitingCount="0" stopTime="0.00" timeLoss="1.15" rerouteNo="0" devices="tripinfo_0507_wb_thru_25200.16" vType="DEFAULT_VEHTYPE" speedFactor="0.71" vaporized=""/>
    <tripinfo id="0507_wb_left_25200.3" depart="25425.00" departLane="NE_in_3" departPos="5.10" departSpeed="15.60" departDelay="0.00" arrival="25439.00" arrivalLane="S_out_0" arrivalPos="49.20" arrivalSpeed="15.38" duration="14.00" routeLength="174.95" waitingTime="0.00" waitingCount="0" stopTime="0.00" timeLoss="2.37" rerouteNo="0" devices="tripinfo_0507_wb_left_25200.3" vType="DEFAULT_VEHTYPE" speedFactor="1.02" vaporized=""/>
    <tripinfo id="0507_eb_thru_25200.32" depart="25424.00" departLane="SW_in_0" departPos="5.10" departSpeed="13.49" departDelay="0.77" arrival="25441.00" arrivalLane="NE_out_0" arrivalPos="94.79" arrivalSpeed="12.85" duration="17.00" routeLength="208.93" waitingTime="0.00" waitingCount="0" stopTime="0.00" timeLoss="0.78" rerouteNo="0" devices="tripinfo_0507_eb_thru_25200.32" vType="DEFAULT_VEHTYPE" speedFactor="0.86" vaporized=""/>
    <tripinfo id="0507_wb_thru_25200.17" depart="25432.00" departLane="NE_in_0" departPos="5.10" departSpeed="15.60" departDelay="0.19" arrival="25446.00" arrivalLane="SW_out_0" arrivalPos="89.18" arrivalSpeed="15.62" duration="14.00" routeLength="208.55" waitingTime="0.00" waitingCount="0" stopTime="0.00" timeLoss="0.63" rerouteNo="0" devices="tripinfo_0507_wb_thru_25200.17" vType="DEFAULT_VEHTYPE" speedFactor="1.01" vaporized=""/>
    <tripinfo id="0507_eb_thru_25200.33" depart="25431.00" departLane="SW_in_0" departPos="5.10" departSpeed="13.72" departDelay="0.79" arrival="25447.00" arrivalLane="NE_out_0" arrivalPos="94.79" arrivalSpeed="13.15" duration="16.00" routeLength="208.93" waitingTime="0.00" waitingCount="0" stopTime="0.00" timeLoss="0.60" rerouteNo="0" devices="tripinfo_0507_eb_thru_25200.33" vType="DEFAULT_VEHTYPE" speedFactor="0.88" vaporized=""/>
    <tripinfo id="0507_eb_thru_25200.34" depart="25438.00" departLane="SW_in_0" departPos="5.10" departSpeed="15.45" departDelay="0.82" arrival="25453.00" arrivalLane="NE_out_0" arrivalPos="94.79" arrivalSpeed="14.41" duration="15.00" routeLength="208.93" waitingTime="0.00" waitingCount="0" stopTime="0.00" timeLoss="0.67" rerouteNo="0" devices="tripinfo_0507_eb_thru_25200.34" vType="DEFAULT_VEHTYPE" speedFactor="0.99" vaporized=""/>
    <tripinfo id="0507_wb_thru_25200.18" depart="25446.00" departLane="NE_in_0" departPos="5.10" departSpeed="15.60" departDelay="0.55" arrival="25459.00" arrivalLane="SW_out_0" arrivalPos="89.18" arrivalSpeed="16.42" duration="13.00" routeLength="208.55" waitingTime="0.00" waitingCount="0" stopTime="0.00" timeLoss="0.47" rerouteNo="0" devices="tripinfo_0507_wb_thru_25200.18" vType="DEFAULT_VEHTYPE" speedFactor="1.09" vaporized=""/>
    <tripinfo id="0507_eb_thru_25200.35" depart="25445.00" departLane="SW_in_0" departPos="5.10" departSpeed="14.27" departDelay="0.84" arrival="25461.00" arrivalLane="NE_out_0" arrivalPos="94.79" arrivalSpeed="13.22" duration="16.00" routeLength="208.93" waitingTime="0.00" waitingCount="0" stopTime="0.00" timeLoss="0.83" rerouteNo="0" devices="tripinfo_0507_eb_thru_25200.35" vType="DEFAULT_VEHTYPE" speedFactor="0.91" vaporized=""/>
    <tripinfo id="0507_eb_thru_25200.36" depart="25452.00" departLane="SW_in_0" departPos="5.10" departSpeed="15.60" departDelay="0.86" arrival="25465.00" arrivalLane="NE_out_0" arrivalPos="94.79" arrivalSpeed="16.72" duration="13.00" routeLength="208.93" waitingTime="0.00" waitingCount="0" stopTime="0.00" timeLoss="0.62" rerouteNo="0" devices="tripinfo_0507_eb_thru_25200.36" vType="DEFAULT_VEHTYPE" speedFactor="1.15" vaporized=""/>
    <tripinfo id="0507_eb_thru_25200.37" depart="25459.00" departLane="SW_in_0" departPos="5.10" departSpeed="15.60" departDelay="0.89" arrival="25472.00" arrivalLane="NE_out_0" arrivalPos="94.79" arrivalSpeed="16.94" duration="13.00" routeLength="208.93" waitingTime="0.00" waitingCount="0" stopTime="0.00" timeLoss="0.44" rerouteNo="0" devices="tripinfo_0507_eb_thru_25200.37" vType="DEFAULT_VEHTYPE" speedFactor="1.11" vaporized=""/>
    <tripinfo id="0507_wb_thru_25200.19" depart="25460.00" departLane="NE_in_0" departPos="5.10" departSpeed="14.23" departDelay="0.92" arrival="25476.00" arrivalLane="SW_out_0" arrivalPos="89.18" arrivalSpeed="13.10" duration="16.00" routeLength="208.55" waitingTime="0.00" waitingCount="0" stopTime="0.00" timeLoss="0.77" rerouteNo="0" devices="tripinfo_0507_wb_thru_25200.19" vType="DEFAULT_VEHTYPE" speedFactor="0.91" vaporized=""/>
    <tripinfo id="0507_eb_thru_25200.38" depart="25466.00" departLane="SW_in_0" departPos="5.10" departSpeed="14.40" departDelay="0.91" arrival="25482.00" arrivalLane="NE_out_0" arrivalPos="94.79" arrivalSpeed="13.11" duration="16.00" routeLength="208.93" waitingTime="0.00" waitingCount="0" stopTime="0.00" timeLoss="0.74" rerouteNo="0" devices="tripinfo_0507_eb_thru_25200.38" vType="DEFAULT_VEHTYPE" speedFactor="0.92" vaporized=""/>
    <tripinfo id="0507_wb_thru_25200.20" depart="25473.00" departLane="NE_in_0" departPos="5.10" departSpeed="15.60" departDelay="0.28" arrival="25487.00" arrivalLane="SW_out_0" arrivalPos="89.18" arrivalSpeed="16.35" duration="14.00" routeLength="208.55" waitingTime="0.00" waitingCount="0" stopTime="0.00" timeLoss="0.60" rerouteNo="0" devices="tripinfo_0507_wb_thru_25200.20" vType="DEFAULT_VEHTYPE" speedFactor="1.07" vaporized=""/>
    <tripinfo id="0507_eb_thru_25200.39" depart="25473.00" departLane="SW_in_0" departPos="5.10" departSpeed="15.40" departDelay="0.94" arrival="25488.00" arrivalLane="NE_out_0" arrivalPos="94.79" arrivalSpeed="14.93" duration="15.00" routeLength="208.93" waitingTime="0.00" waitingCount="0" stopTime="0.00" timeLoss="0.60" rerouteNo="0" devices="tripinfo_0507_eb_thru_25200.39" vType="DEFAULT_VEHTYPE" speedFactor="0.99" vaporized=""/>
    <tripinfo id="0507_eb_thru_25200.40" depart="25480.00" departLane="SW_in_0" departPos="5.10" departSpeed="15.60" departDelay="0.96" arrival="25492.00" arrivalLane="NE_out_0" arrivalPos="94.79" arrivalSpeed="17.95" duration="12.00" routeLength="208.93" waitingTime="0.00" waitingCount="0" stopTime="0.00" timeLoss="0.36" rerouteNo="0" devices="tripinfo_0507_eb_thru_25200.40" vType="DEFAULT_VEHTYPE" speedFactor="1.15" vaporized=""/>