<?xml version="1.0" encoding="UTF-8"?>

<!-- generated on 2026-07-10T18:58:04.674815+09:00 by Eclipse SUMO sumo 1.27.1
<sumoConfiguration xmlns:xsi="http://www.w3.org/2001/XMLSchema-instance" xsi:noNamespaceSchemaLocation="http://sumo.dlr.de/xsd/sumoConfiguration.xsd">

    <input>
        <net-file value="/home/andy/Downloads/GDOT/sumotwin/7065.net.xml"/>
        <route-files value="/home/andy/Downloads/GDOT/rlagent/../sumodemand/0507.rou.xml"/>
    </input>

    <output>
        <tripinfo-output value="/home/andy/Downloads/GDOT/rlagent/results/tripinfo_rl_0507.xml"/>
    </output>

    <time>
        <begin value="25200"/>
        <end value="36000"/>
    </time>

    <processing>
        <time-to-teleport value="300"/>
    </processing>

    <report>
        <no-warnings value="true"/>
        <duration-log.disable value="true"/>
        <no-step-log value="true"/>
    </report>

    <traci_server>
        <remote-port value="42885"/>
    </traci_server>

    <random_number>
        <seed value="9999"/>
    </random_number>

</sumoConfiguration>
-->

<tripinfos xmlns:xsi="http://www.w3.org/2001/XMLSchema-instance" xsi:noNamespaceSchemaLocation="http://sumo.dlr.de/xsd/tripinfo_file.xsd">
    <tripinfo id="0507_eb_left_25200.0" depart="25200.00" departLane="SW_in_3" departPos="5.10" departSpeed="15.25" departDelay="0.00" arrival="25216.00" arrivalLane="N_out_0" arrivalPos="8.47" arrivalSpeed="14.98" duration="16.00" routeLength="128.92" waitingTime="1.00" waitingCount="1" stopTime="0.00" timeLoss="6.28" rerouteNo="0" devices="tripinfo_0507_eb_left_25200.0" vType="DEFAULT_VEHTYPE" speedFactor="0.98" vaporized=""/>
    <tripinfo id="0507_eb_thru_25200.1" depart="25207.00" departLane="SW_in_1" departPos="5.10" departSpeed="15.60" departDelay="0.02" arrival="25221.00" arrivalLane="NE_out_1" arrivalPos="94.79" arrivalSpeed="16.00" duration="14.00" routeLength="208.93" waitingTime="0.00" waitingCount="0" stopTime="0.00" timeLoss="0.46" rerouteNo="0" devices="tripinfo_0507_eb_thru_25200.1" vType="DEFAULT_VEHTYPE" speedFactor="1.05" vaporized=""/>
    <tripinfo id="0507_eb_thru_25200.0" depart="25200.00" departLane="SW_in_0" departPos="5.10" departSpeed="13.87" departDelay="0.00" arrival="25222.00" arrivalLane="NE_out_0" arrivalPos="94.79" arrivalSpeed="12.62" duration="22.00" routeLength="208.93" waitingTime="0.00" waitingCount="0" stopTime="0.00" timeLoss="6.45" rerouteNo="0" devices="tripinfo_0507_eb_thru_25200.0" vType="DEFAULT_VEHTYPE" speedFactor="0.89" vaporized=""/>
    <tripinfo id="0507_eb_thru_25200.2" depart="25214.00" departLane="SW_in_0" departPos="5.10" departSpeed="14.02" departDelay="0.05" arrival="25230.00" arrivalLane="NE_out_0" arrivalPos="94.79" arrivalSpeed="13.65" duration="16.00" routeLength="208.93" waitingTime="0.00" waitingCount="0" stopTime="0.00" timeLoss="0.69" rerouteNo="0" devices="tripinfo_0507_eb_thru_25200.2" vType="DEFAULT_VEHTYPE" speedFactor="0.90" vaporized=""/>
    <tripinfo id="0507_eb_thru_25200.3" depart="25221.00" departLane="SW_in_0" departPos="5.10" departSpeed="13.87" departDelay="0.07" arrival="25237.00" arrivalLane="NE_out_0" arrivalPos="94.79" arrivalSpeed="12.98" duration="16.00" routeLength="208.93" waitingTime="0.00" waitingCount="0" stopTime="0.00" timeLoss="0.54" rerouteNo="0" devices="tripinfo_0507_eb_thru_25200.3" vType="DEFAULT_VEHTYPE" speedFactor="0.89" vaporized=""/>
    <tripinfo id="0507_eb_thru_25200.4" depart="25228.00" departLane="SW_in_0" departPos="5.10" departSpeed="14.23" departDelay="0.10" arrival="25244.00" arrivalLane="NE_out_0" arrivalPos="94.79" arrivalSpeed="12.99" duration="16.00" routeLength="208.93" waitingTime="0.00" waitingCount="0" stopTime="0.00" timeLoss="0.65" rerouteNo="0" devices="tripinfo_0507_eb_thru_25200.4" vType="DEFAULT_VEHTYPE" speedFactor="0.91" vaporized=""/>
    <tripinfo id="0507_eb_thru_25200.5" depart="25235.00" departLane="SW_in_0" departPos="5.10" departSpeed="15.18" departDelay="0.12" arrival="25250.00" arrivalLane="NE_out_0" arrivalPos="94.79" arrivalSpeed="14.21" duration="15.00" routeLength="208.93" waitingTime="0.00" waitingCount="0" stopTime="0.00" timeLoss="0.79" rerouteNo="0" devices="tripinfo_0507_eb_thru_25200.5" vType="DEFAULT_VEHTYPE" speedFactor="0.97" vaporized=""/>
    <tripinfo id="0507_eb_left_25200.1" depart="25243.00" departLane="SW_in_3" departPos="5.10" departSpeed="15.54" departDelay="0.14" arrival="25253.00" arrivalLane="N_out_0" arrivalPos="8.47" arrivalSpeed="14.32" duration="10.00" routeLength="128.92" waitingTime="0.00" waitingCount="0" stopTime="0.00" timeLoss="0.82" rerouteNo="0" devices="tripinfo_0507_eb_left_25200.1" vType="DEFAULT_VEHTYPE" speedFactor="1.00" vaporized=""/>
    <tripinfo id="0507_eb_thru_25200.6" depart="25242.00" departLane="SW_in_0" departPos="5.10" departSpeed="15.60" departDelay="0.14" arrival="25256.00" arrivalLane="NE_out_0" arrivalPos="94.79" arrivalSpeed="14.81" duration="14.00" routeLength="208.93" waitingTime="0.00" waitingCount="0" stopTime="0.00" timeLoss="0.48" rerouteNo="0" devices="tripinfo_0507_eb_thru_25200.6" vType="DEFAULT_VEHTYPE" speedFactor="1.01" vaporized=""/>
    <tripinfo id="0507_eb_thru_25200.7" depart="25249.00" departLane="SW_in_0" departPos="5.10" departSpeed="15.60" departDelay="0.17" arrival="25262.00" arrivalLane="NE_out_0" arrivalPos="94.79" arrivalSpeed="17.65" duration="13.00" routeLength="208.93" waitingTime="0.00" waitingCount="0" stopTime="0.00" timeLoss="0.39" rerouteNo="0" devices="tripinfo_0507_eb_thru_25200.7" vType="DEFAULT_VEHTYPE" speedFactor="1.14" vaporized=""/>
    <tripinfo id="0507_eb_thru_25200.8" depart="25256.00" departLane="SW_in_0" departPos="5.10" departSpeed="15.60" departDelay="0.19" arrival="25270.00" arrivalLane="NE_out_0" arrivalPos="94.79" arrivalSpeed="15.71" duration="14.00" routeLength="208.93" waitingTime="0.00" waitingCount="0" stopTime="0.00" timeLoss="0.66" rerouteNo="0" devices="tripinfo_0507_eb_thru_25200.8" vType="DEFAULT_VEHTYPE" speedFactor="1.05" vaporized=""/>
    <tripinfo id="0507_eb_thru_25200.9" depart="25263.00" departLane="SW_in_0" departPos="5.10" departSpeed="14.78" departDelay="0.22" arrival="25278.00" arrivalLane="NE_out_0" arrivalPos="94.79" arrivalSpeed="14.42" duration="15.00" routeLength="208.93" waitingTime="0.00" waitingCount="0" stopTime="0.00" timeLoss="0.61" rerouteNo="0" devices="tripinfo_0507_eb_thru_25200.9" vType="DEFAULT_VEHTYPE" speedFactor="0.95" vaporized=""/>
    <tripinfo id="0507_eb_thru_25200.10" depart="25270.00" departLane="SW_in_0" departPos="5.10" departSpeed="13.86" departDelay="0.24" arrival="25287.00" arrivalLane="NE_out_0" arrivalPos="94.79" arrivalSpeed="13.82" duration="17.00" routeLength="208.93" waitingTime="0.00" waitingCount="0" stopTime="0.00" timeLoss="0.95" rerouteNo="0" devices="tripinfo_0507_eb_thru_25200.10" vType="DEFAULT_VEHTYPE" speedFactor="0.89" vaporized=""/>
    <tripinfo id="0507_eb_thru_25200.11" depart="25277.00" departLane="SW_in_0" departPos="5.10" departSpeed="15.60" departDelay="0.26" arrival="25291.00" arrivalLane="NE_out_0" arrivalPos="94.79" arrivalSpeed="15.42" duration="14.00" routeLength="208.93" waitingTime="0.00" waitingCount="0" stopTime="0.00" timeLoss="0.67" rerouteNo="0" devices="tripinfo_0507_eb_thru_25200.11" vType="DEFAULT_VEHTYPE" speedFactor="1.01" vaporized=""/>
    <tripinfo id="0507_nb_thru_25200.0" depart="25200.00" departLane="S_in_1" departPos="5.10" departSpeed="15.60" departDelay="0.00" arrival="25297.00" arrivalLane="N_out_0" arrivalPos="8.47" arrivalSpeed="13.33" duration="97.00" routeLength="92.80" waitingTime="85.00" waitingCount="1" stopTime="0.00" timeLoss="91.16" rerouteNo="0" devices="tripinfo_0507_nb_thru_25200.0" vType="DEFAULT_VEHTYPE" speedFactor="1.05" vaporized=""/>
    <tripinfo id="0507_nb_thru_25200.1" depart="25212.00" departLane="S_in_2" departPos="5.10" departSpeed="15.60" departDelay="0.89" arrival="25297.00" arrivalLane="N_out_1" arrivalPos="8.47" arrivalSpeed="13.32" duration="85.00" routeLength="92.80" waitingTime="72.00" waitingCount="1" stopTime="0.00" timeLoss="79.71" rerouteNo="0" devices="tripinfo_0507_nb_thru_25200.1" vType="DEFAULT_VEHTYPE" speedFactor="1.14" vaporized=""/>
    <tripinfo id="0507_nb_thru_25200.2" depart="25223.00" departLane="S_in_1" departPos="5.10" departSpeed="0.00" departDelay="0.78" arrival="25299.00" arrivalLane="N_out_0" arrivalPos="8.47" arrivalSpeed="15.08" duration="76.00" routeLength="92.80" waitingTime="61.00" waitingCount="1" stopTime="0.00" timeLoss="69.48" rerouteNo="0" devices="tripinfo_0507_nb_thru_25200.2" vType="DEFAULT_VEHTYPE" speedFactor="0.99" vaporized=""/>
    <tripinfo id="0507_nb_thru_25200.3" depart="25234.00" departLane="S_in_1" departPos="5.10" departSpeed="0.00" departDelay="0.67" arrival="25299.00" arrivalLane="N_out_1" arrivalPos="8.47" arrivalSpeed="14.45" duration="65.00" routeLength="92.80" waitingTime="48.00" waitingCount="1" stopTime="0.00" timeLoss="58.59" rerouteNo="0" devices="tripinfo_0507_nb_thru_25200.3" vType="DEFAULT_VEHTYPE" speedFactor="0.99" vaporized=""/>
    <tripinfo id="0507_nb_thru_25200.4" depart="25245.00" departLane="S_in_1" departPos="5.10" departSpeed="0.00" departDelay="0.56" arrival="25301.00" arrivalLane="N_out_0" arrivalPos="8.47" arrivalSpeed="12.33" duration="56.00" routeLength="92.80" waitingTime="40.00" waitingCount="1" stopTime="0.00" timeLoss="48.00" rerouteNo="0" devices="tripinfo_0507_nb_thru_25200.4" vType="DEFAULT_VEHTYPE" speedFactor="0.79" vaporized=""/>
    <tripinfo id="0507_nb_thru_25200.5" depart="25256.00" departLane="S_in_2" departPos="5.10" departSpeed="0.00" departDelay="0.45" arrival="25301.00" arrivalLane="N_out_1" arrivalPos="8.47" arrivalSpeed="17.14" duration="45.00" routeLength="92.80" waitingTime="29.00" waitingCount="1" stopTime="0.00" timeLoss="39.02" rerouteNo="0" devices="tripinfo_0507_nb_thru_25200.5" vType="DEFAULT_VEHTYPE" speedFactor="1.14" vaporized=""/>
    <tripinfo id="0507_nb_left_25200.0" depart="25200.00" departLane="S_in_3" departPos="5.10" departSpeed="14.35" departDelay="0.00" arrival="25303.00" arrivalLane="SW_out_2" arrivalPos="89.18" arrivalSpeed="14.32" duration="103.00" routeLength="163.88" waitingTime="84.00" waitingCount="1" stopTime="0.00" timeLoss="90.48" rerouteNo="0" devices="tripinfo_0507_nb_left_25200.0" vType="DEFAULT_VEHTYPE" speedFactor="0.92" vaporized=""/>
    <tripinfo id="0507_nb_left_25200.1" depart="25234.00" departLane="S_in_3" departPos="5.10" departSpeed="0.00" departDelay="0.67" arrival="25305.00" arrivalLane="SW_out_2" arrivalPos="89.18" arrivalSpeed="15.85" duration="71.00" routeLength="163.88" waitingTime="50.00" waitingCount="1" stopTime="0.00" timeLoss="59.63" rerouteNo="0" devices="tripinfo_0507_nb_left_25200.1" vType="DEFAULT_VEHTYPE" speedFactor="1.04" vaporized=""/>
    <tripinfo id="0507_nb_left_25200.2" depart="25267.00" departLane="S_in_3" departPos="5.10" departSpeed="0.00" departDelay="0.33" arrival="25306.00" arrivalLane="SW_out_2" arrivalPos="89.18" arrivalSpeed="16.34" duration="39.00" routeLength="163.88" waitingTime="18.00" waitingCount="1" stopTime="0.00" timeLoss="29.30" rerouteNo="0" devices="tripinfo_0507_nb_left_25200.2" vType="DEFAULT_VEHTYPE" speedFactor="1.18" vaporized=""/>
    <tripinfo id="0507_wb_thru_25200.0" depart="25200.00" departLane="NE_in_0" departPos="5.10" departSpeed="15.60" departDelay="0.00" arrival="25315.00" arrivalLane="SW_out_0" arrivalPos="89.18" arrivalSpeed="16.06" duration="115.00" routeLength="208.55" waitingTime="96.00" waitingCount="1" stopTime="0.00" timeLoss="102.63" rerouteNo="0" devices="tripinfo_0507_wb_thru_25200.0" vType="DEFAULT_VEHTYPE" speedFactor="1.10" vaporized=""/>
    <tripinfo id="0507_wb_thru_25200.1" depart="25214.00" departLane="NE_in_0" departPos="5.10" departSpeed="14.36" departDelay="0.36" arrival="25316.00" arrivalLane="SW_out_1" arrivalPos="89.18" arrivalSpeed="13.14" duration="102.00" routeLength="208.55" waitingTime="78.00" waitingCount="1" stopTime="0.00" timeLoss="87.05" rerouteNo="0" devices="tripinfo_0507_wb_thru_25200.1" vType="DEFAULT_VEHTYPE" speedFactor="0.92" vaporized=""/>
    <tripinfo id="0507_wb_thru_25200.3" depart="25241.00" departLane="NE_in_0" departPos="5.10" departSpeed="15.06" departDelay="0.09" arrival="25316.00" arrivalLane="SW_out_2" arrivalPos="89.18" arrivalSpeed="14.82" duration="75.00" routeLength="208.55" waitingTime="52.00" waitingCount="1" stopTime="0.00" timeLoss="60.61" rerouteNo="0" devices="tripinfo_0507_wb_thru_25200.3" vType="DEFAULT_VEHTYPE" speedFactor="0.97" vaporized=""/>
    <tripinfo id="0507_eb_thru_25200.12" depart="25284.00" departLane="SW_in_0" departPos="5.10" departSpeed="15.60" departDelay="0.29" arrival="25316.00" arrivalLane="NE_out_0" arrivalPos="94.79" arrivalSpeed="16.06" duration="32.00" routeLength="208.93" waitingTime="12.00" waitingCount="1" stopTime="0.00" timeLoss="18.80" rerouteNo="0" devices="tripinfo_0507_eb_thru_25200.12" vType="DEFAULT_VEHTYPE" speedFactor="1.06" vaporized=""/>
    <tripinfo id="0507_eb_thru_25200.13" depart="25291.00" departLane="SW_in_1" departPos="5.10" departSpeed="15.60" departDelay="0.31" arrival="25316.00" arrivalLane="NE_out_1" arrivalPos="94.79" arrivalSpeed="16.39" duration="25.00" routeLength="208.93" waitingTime="4.00" waitingCount="1" stopTime="0.00" timeLoss="12.10" rerouteNo="0" devices="tripinfo_0507_eb_thru_25200.13" vType="DEFAULT_VEHTYPE" speedFactor="1.08" vaporized=""/>
    <tripinfo id="0507_wb_thru_25200.2" depart="25228.00" departLane="NE_in_0" departPos="5.10" departSpeed="15.60" departDelay="0.73" arrival="25317.00" arrivalLane="SW_out_0" arrivalPos="89.18" arrivalSpeed="17.24" duration="89.00" routeLength="208.55" waitingTime="68.00" waitingCount="1" stopTime="0.00" timeLoss="76.66" rerouteNo="0" devices="tripinfo_0507_wb_thru_25200.2" vType="DEFAULT_VEHTYPE" speedFactor="1.12" vaporized=""/>
    <tripinfo id="0507_wb_thru_25200.6" depart="25282.00" departLane="NE_in_0" departPos="5.10" departSpeed="15.60" departDelay="0.18" arrival="25317.00" arrivalLane="SW_out_2" arrivalPos="89.18" arrivalSpeed="16.82" duration="35.00" routeLength="208.55" waitingTime="13.00" waitingCount="1" stopTime="0.00" timeLoss="23.88" rerouteNo="0" devices="tripinfo_0507_wb_thru_25200.6" vType="DEFAULT_VEHTYPE" speedFactor="1.20" vaporized=""/>
    <tripinfo id="0507_wb_thru_25200.4" depart="25255.00" departLane="NE_in_0" departPos="5.10" departSpeed="15.60" departDelay="0.46" arrival="25318.00" arrivalLane="SW_out_1" arrivalPos="89.18" arrivalSpeed="16.49" duration="63.00" routeLength="208.55" waitingTime="42.00" waitingCount="1" stopTime="0.00" timeLoss="49.86" rerouteNo="0" devices="tripinfo_0507_wb_thru_25200.4" vType="DEFAULT_VEHTYPE" speedFactor="1.09" vaporized=""/>
    <tripinfo id="0507_eb_thru_25200.14" depart="25298.00" departLane="SW_in_0" departPos="5.10" departSpeed="0.00" departDelay="0.34" arrival="25318.00" arrivalLane="NE_out_0" arrivalPos="94.79" arrivalSpeed="13.70" duration="20.00" routeLength="208.93" waitingTime="0.00" waitingCount="0" stopTime="0.00" timeLoss="5.21" rerouteNo="0" devices="tripinfo_0507_eb_thru_25200.14" vType="DEFAULT_VEHTYPE" speedFactor="0.91" vaporized=""/>
    <tripinfo id="0507_wb_thru_25200.7" depart="25296.00" departLane="NE_in_0" departPos="5.10" departSpeed="15.60" departDelay="0.55" arrival="25319.00" arrivalLane="SW_out_1" arrivalPos="89.18" arrivalSpeed="16.33" duration="23.00" routeLength="208.55" waitingTime="1.00" waitingCount="1" stopTime="0.00" timeLoss="10.87" rerouteNo="0" devices="tripinfo_0507_wb_thru_25200.7" vType="DEFAULT_VEHTYPE" speedFactor="1.12" vaporized=""/>
    <tripinfo id="0507_wb_thru_25200.5" depart="25269.00" departLane="NE_in_0" departPos="5.10" departSpeed="14.14" departDelay="0.82" arrival="25320.00" arrivalLane="SW_out_0" arrivalPos="89.18" arrivalSpeed="14.04" duration="51.00" routeLength="208.55" waitingTime="27.00" waitingCount="1" stopTime="0.00" timeLoss="36.26" rerouteNo="0" devices="tripinfo_0507_wb_thru_25200.5" vType="DEFAULT_VEHTYPE" speedFactor="0.91" vaporized=""/>
    <tripinfo id="0507_wb_left_25200.0" depart="25200.00" departLane="NE_in_3" departPos="5.10" departSpeed="15.50" departDelay="0.00" arrival="25321.00" arrivalLane="S_out_0" arrivalPos="49.20" arrivalSpeed="14.77" duration="121.00" routeLength="174.95" waitingTime="99.00" waitingCount="2" stopTime="0.00" timeLoss="109.06" rerouteNo="0" devices="tripinfo_0507_wb_left_25200.0" vType="DEFAULT_VEHTYPE" speedFactor="0.99" vaporized=""/>
    <tripinfo id="0507_eb_thru_25200.15" depart="25305.00" departLane="SW_in_0" departPos="5.10" departSpeed="12.67" departDelay="0.36" arrival="25323.00" arrivalLane="NE_out_0" arrivalPos="94.79" arrivalSpeed="12.04" duration="18.00" routeLength="208.93" waitingTime="0.00" waitingCount="0" stopTime="0.00" timeLoss="0.69" rerouteNo="0" devices="tripinfo_0507_eb_thru_25200.15" vType="DEFAULT_VEHTYPE" speedFactor="0.81" vaporized=""/>
    <tripinfo id="0507_wb_thru_25200.8" depart="25310.00" departLane="NE_in_0" departPos="5.10" departSpeed="14.58" departDelay="0.91" arrival="25326.00" arrivalLane="SW_out_0" arrivalPos="89.18" arrivalSpeed="14.22" duration="16.00" routeLength="208.55" waitingTime="0.00" waitingCount="0" stopTime="0.00" timeLoss="0.75" rerouteNo="0" devices="tripinfo_0507_wb_thru_25200.8" vType="DEFAULT_VEHTYPE" speedFactor="0.93" vaporized=""/>
    <tripinfo id="0507_eb_thru_25200.16" depart="25312.00" departLane="SW_in_0" departPos="5.10" departSpeed="13.98" departDelay="0.38" arrival="25328.00" arrivalLane="NE_out_0" arrivalPos="94.79" arrivalSpeed="13.91" duration="16.00" routeLength="208.93" waitingTime="0.00" waitingCount="0" stopTime="0.00" timeLoss="0.87" rerouteNo="0" devices="tripinfo_0507_eb_thru_25200.16" vType="DEFAULT_VEHTYPE" speedFactor="0.90" vaporized=""/>
    <tripinfo id="0507_eb_thru_25200.17" depart="25319.00" departLane="SW_in_0" departPos="5.10" departSpeed="15.03" departDelay="0.41" arrival="25334.00" arrivalLane="NE_out_0" arrivalPos="94.79" arrivalSpeed="14.37" duration="15.00" routeLength="208.93" waitingTime="0.00" waitingCount="0" stopTime="0.00" timeLoss="0.65" rerouteNo="0" devices="tripinfo_0507_eb_thru_25200.17" vType="DEFAULT_VEHTYPE" speedFactor="0.96" vaporized=""/>
    <tripinfo id="0507_wb_thru_25200.9" depart="25323.00" departLane="NE_in_0" departPos="5.10" departSpeed="15.60" departDelay="0.28" arrival="25336.00" arrivalLane="SW_out_0" arrivalPos="89.18" arrivalSpeed="17.13" duration="13.00" routeLength="208.55" waitingTime="0.00" waitingCount="0" stopTime="0.00" timeLoss="0.44" rerouteNo="0" devices="tripinfo_0507_wb_thru_25200.9" vType="DEFAULT_VEHTYPE" speedFactor="1.10" vaporized=""/>
    <tripinfo id="0507_eb_thru_25200.18" depart="25326.00" departLane="SW_in_0" departPos="5.10" departSpeed="14.64" departDelay="0.43" arrival="25341.00" arrivalLane="NE_out_0" arrivalPos="94.79" arrivalSpeed="13.79" duration="15.00" routeLength="208.93" waitingTime="0.00" waitingCount="0" stopTime="0.00" timeLoss="0.68" rerouteNo="0" devices="tripinfo_0507_eb_thru_25200.18" vType="DEFAULT_VEHTYPE" speedFactor="0.94" vaporized=""/>
    <tripinfo id="0507_eb_thru_25200.19" depart="25333.00" departLane="SW_in_0" departPos="5.10" departSpeed="15.09" departDelay="0.46" arrival="25348.00" arrivalLane="NE_out_0" arrivalPos="94.79" arrivalSpeed="14.38" duration="15.00" routeLength="208.93" waitingTime="0.00" waitingCount="0" stopTime="0.00" timeLoss="0.72" rerouteNo="0" devices="tripinfo_0507_eb_thru_25200.19" vType="DEFAULT_VEHTYPE" speedFactor="0.97" vaporized=""/>
    <tripinfo id="0507_wb_thru_25200.10" depart="25337.00" departLane="NE_in_0" departPos="5.10" departSpeed="14.31" departDelay="0.64" arrival="25353.00" arrivalLane="SW_out_0" arrivalPos="89.18" arrivalSpeed="13.22" duration="16.00" routeLength="208.55" waitingTime="0.00" waitingCount="0" stopTime="0.00" timeLoss="0.71" rerouteNo="0" devices="tripinfo_0507_wb_thru_25200.10" vType="DEFAULT_VEHTYPE" speedFactor="0.92" vaporized=""/>
    <tripinfo id="0507_eb_thru_25200.20" depart="25340.00" departLane="SW_in_0" departPos="5.10" departSpeed="15.19" departDelay="0.48" arrival="25355.00" arrivalLane="NE_out_0" arrivalPos="94.79" arrivalSpeed="13.98" duration="15.00" routeLength="208.93" waitingTime="0.00" waitingCount="0" stopTime="0.00" timeLoss="0.74" rerouteNo="0" devices="tripinfo_0507_eb_thru_25200.20" vType="DEFAULT_VEHTYPE" speedFactor="0.97" vaporized=""/>
    <tripinfo id="0507_eb_thru_25200.21" depart="25347.00" departLane="SW_in_0" departPos="5.10" departSpeed="15.60" departDelay="0.50" arrival="25360.00" arrivalLane="NE_out_0" arrivalPos="94.79" arrivalSpeed="16.28" duration="13.00" routeLength="208.93" waitingTime="0.00" waitingCount="0" stopTime="0.00" timeLoss="0.49" rerouteNo="0" devices="tripinfo_0507_eb_thru_25200.21" vType="DEFAULT_VEHTYPE" speedFactor="1.12" vaporized=""/>
    <tripinfo id="0507_wb_left_25200.1" depart="25275.00" departLane="NE_in_3" departPos="5.10" departSpeed="14.62" departDelay="0.00" arrival="25363.00" arrivalLane="S_out_1" arrivalPos="49.20" arrivalSpeed="14.51" duration="88.00" routeLength="170.44" waitingTime="64.00" waitingCount="2" stopTime="0.00" timeLoss="75.30" rerouteNo="0" devices="tripinfo_0507_wb_left_25200.1" vType="DEFAULT_VEHTYPE" speedFactor="0.94" vaporized=""/>
    <tripinfo id="0507_wb_left_25200.2" depart="25350.00" departLane="NE_in_3" departPos="5.10" departSpeed="15.37" departDelay="0.00" arrival="25364.00" arrivalLane="S_out_0" arrivalPos="49.20" arrivalSpeed="14.70" duration="14.00" routeLength="174.95" waitingTime="0.00" waitingCount="0" stopTime="0.00" timeLoss="1.82" rerouteNo="0" devices="tripinfo_0507_wb_left_25200.2" vType="DEFAULT_VEHTYPE" speedFactor="0.98" vaporized=""/>
    <tripinfo id="0507_wb_thru_25200.11" depart="25350.00" departLane="NE_in_0" departPos="5.10" departSpeed="12.48" departDelay="0.00" arrival="25368.00" arrivalLane="SW_out_0" arrivalPos="89.18" arrivalSpeed="11.50" duration="18.00" routeLength="208.55" waitingTime="0.00" waitingCount="0" stopTime="0.00" timeLoss="0.96" rerouteNo="0" devices="tripinfo_0507_wb_thru_25200.11" vType="DEFAULT_VEHTYPE" speedFactor="0.80" vaporized=""/>
    <tripinfo id="0507_nb_thru_25200.6" depart="25267.00" departLane="S_in_1" departPos="5.10" departSpeed="0.00" departDelay="0.33" arrival="25372.00" arrivalLane="N_out_0" arrivalPos="8.47" arrivalSpeed="13.60" duration="105.00" routeLength="92.80" waitingTime="82.00" waitingCount="2" stopTime="0.00" timeLoss="98.97" rerouteNo="0" devices="tripinfo_0507_nb_thru_25200.6" vType="DEFAULT_VEHTYPE" speedFactor="1.00" vaporized=""/>
    <tripinfo id="0507_nb_thru_25200.7" depart="25278.00" departLane="S_in_1" departPos="5.10" departSpeed="0.00" departDelay="0.22" arrival="25373.00" arrivalLane="N_out_1" arrivalPos="8.47" arrivalSpeed="12.69" duration="95.00" routeLength="92.80" waitingTime="72.00" waitingCount="2" stopTime="0.00" timeLoss="88.44" rerouteNo="0" devices="tripinfo_0507_nb_thru_25200.7" vType="DEFAULT_VEHTYPE" speedFactor="1.00" vaporized=""/>
    <tripinfo id="0507_nb_thru_25200.9" depart="25300.00" departLane="S_in_1" departPos="5.10" departSpeed="0.69" departDelay="0.00" arrival="25374.00" arrivalLane="N_out_0" arrivalPos="8.47" arrivalSpeed="14.24" duration="74.00" routeLength="92.80" waitingTime="59.00" waitingCount="1" stopTime="0.00" timeLoss="68.18" rerouteNo="0" devices="tripinfo_0507_nb_thru_25200.9" vType="DEFAULT_VEHTYPE" speedFactor="1.07" vaporized=""/>
    <tripinfo id="0507_nb_thru_25200.8" depart="25289.00" departLane="S_in_2" departPos="5.10" departSpeed="0.00" departDelay="0.11" arrival="25375.00" arrivalLane="N_out_1" arrivalPos="8.47" arrivalSpeed="14.70" duration="86.00" routeLength="92.80" waitingTime="63.00" waitingCount="1" stopTime="0.00" timeLoss="79.52" rerouteNo="0" devices="tripinfo_0507_nb_thru_25200.8" vType="DEFAULT_VEHTYPE" speedFactor="1.05" vaporized=""/>
    <tripinfo id="0507_nb_thru_25200.10" depart="25312.00" departLane="S_in_1" departPos="5.10" departSpeed="0.00" departDelay="0.89" arrival="25376.00" arrivalLane="N_out_0" arrivalPos="8.47" arrivalSpeed="14.40" duration="64.00" routeLength="92.80" waitingTime="48.00" waitingCount="1" stopTime="0.00" timeLoss="57.44" rerouteNo="0" devices="tripinfo_0507_nb_thru_25200.10" vType="DEFAULT_VEHTYPE" speedFactor="0.96" vaporized=""/>
    <tripinfo id="0507_nb_thru_25200.11" depart="25323.00" departLane="S_in_2" departPos="5.10" departSpeed="0.00" departDelay="0.78" arrival="25376.00" arrivalLane="N_out_1" arrivalPos="8.47" arrivalSpeed="13.24" duration="53.00" routeLength="92.80" waitingTime="36.00" waitingCount="1" stopTime="0.00" timeLoss="46.89" rerouteNo="0" devices="tripinfo_0507_nb_thru_25200.11" vType="DEFAULT_VEHTYPE" speedFactor="1.00" vaporized=""/>
    <tripinfo id="0507_nb_left_25200.3" depart="25300.00" departLane="S_in_3" departPos="5.10" departSpeed="13.62" departDelay="0.00" arrival="25378.00" arrivalLane="SW_out_2" arrivalPos="89.18" arrivalSpeed="12.95" duration="78.00" routeLength="163.88" waitingTime="58.00" waitingCount="1" stopTime="0.00" timeLoss="64.93" rerouteNo="0" devices="tripinfo_0507_nb_left_25200.3" vType="DEFAULT_VEHTYPE" speedFactor="0.87" vaporized=""/>
    <tripinfo id="0507_nb_thru_25200.12" depart="25334.00" departLane="S_in_1" departPos="5.10" departSpeed="0.00" departDelay="0.67" arrival="25378.00" arrivalLane="N_out_0" arrivalPos="8.47" arrivalSpeed="13.23" duration="44.00" routeLength="92.80" waitingTime="27.00" waitingCount="1" stopTime="0.00" timeLoss="37.08" rerouteNo="0" devices="tripinfo_0507_nb_thru_25200.12" vType="DEFAULT_VEHTYPE" speedFactor="0.92" vaporized=""/>
    <tripinfo id="0507_nb_thru_25200.13" depart="25345.00" departLane="S_in_2" departPos="5.10" departSpeed="0.00" departDelay="0.56" arrival="25378.00" arrivalLane="N_out_1" arrivalPos="8.47" arrivalSpeed="16.29" duration="33.00" routeLength="92.80" waitingTime="15.00" waitingCount="1" stopTime="0.00" timeLoss="27.10" rerouteNo="0" devices="tripinfo_0507_nb_thru_25200.13" vType="DEFAULT_VEHTYPE" speedFactor="1.13" vaporized=""/>
    <tripinfo id="0507_nb_thru_25200.15" depart="25367.00" departLane="S_in_2" departPos="5.10" departSpeed="0.25" departDelay="0.34" arrival="25379.00" arrivalLane="N_out_1" arrivalPos="8.47" arrivalSpeed="15.07" duration="12.00" routeLength="92.80" waitingTime="0.00" waitingCount="0" stopTime="0.00" timeLoss="6.24" rerouteNo="0" devices="tripinfo_0507_nb_thru_25200.15" vType="DEFAULT_VEHTYPE" speedFactor="1.04" vaporized=""/>
    <tripinfo id="0507_nb_left_25200.4" depart="25334.00" departLane="S_in_3" departPos="5.10" departSpeed="0.00" departDelay="0.67" arrival="25380.00" arrivalLane="SW_out_2" arrivalPos="89.18" arrivalSpeed="13.21" duration="46.00" routeLength="163.88" waitingTime="24.00" waitingCount="1" stopTime="0.00" timeLoss="33.40" rerouteNo="0" devices="tripinfo_0507_nb_left_25200.4" vType="DEFAULT_VEHTYPE" speedFactor="0.93" vaporized=""/>
    <tripinfo id="0507_nb_thru_25200.14" depart="25356.00" departLane="S_in_1" departPos="5.10" departSpeed="0.00" departDelay="0.45" arrival="25380.00" arrivalLane="N_out_0" arrivalPos="8.47" arrivalSpeed="14.61" duration="24.00" routeLength="92.80" waitingTime="8.00" waitingCount="1" stopTime="0.00" timeLoss="17.53" rerouteNo="0" devices="tripinfo_0507_nb_thru_25200.14" vType="DEFAULT_VEHTYPE" speedFactor="1.00" vaporized=""/>
    <tripinfo id="0507_nb_left_25200.5" depart="25367.00" departLane="S_in_3" departPos="5.10" departSpeed="1.60" departDelay="0.34" arrival="25384.00" arrivalLane="SW_out_2" arrivalPos="89.18" arrivalSpeed="12.88" duration="17.00" routeLength="163.88" waitingTime="0.00" waitingCount="0" stopTime="0.00" timeLoss="3.27" rerouteNo="0" devices="tripinfo_0507_nb_left_25200.5" vType="DEFAULT_VEHTYPE" speedFactor="0.88" vaporized=""/>
    <tripinfo id="0507_nb_thru_25200.16" depart="25378.00" departLane="S_in_1" departPos="5.10" departSpeed="14.34" departDelay="0.22" arrival="25385.00" arrivalLane="N_out_0" arrivalPos="8.47" arrivalSpeed="14.02" duration="7.00" routeLength="92.80" waitingTime="0.00" waitingCount="0" stopTime="0.00" timeLoss="0.34" rerouteNo="0" devices="tripinfo_0507_nb_thru_25200.16" vType="DEFAULT_VEHTYPE" speedFactor="0.92" vaporized=""/>
    <tripinfo id="0507_nb_thru_25200.17" depart="25389.00" departLane="S_in_1" departPos="5.10" departSpeed="15.60" departDelay="0.11" arrival="25395.00" arrivalLane="N_out_0" arrivalPos="8.47" arrivalSpeed="16.93" duration="6.00" routeLength="92.80" waitingTime="0.00" waitingCount="0" stopTime="0.00" timeLoss="0.12" rerouteNo="0" devices="tripinfo_0507_nb_thru_25200.17" vType="DEFAULT_VEHTYPE" speedFactor="1.10" vaporized=""/>
    <tripinfo id="0507_nb_thru_25200.18" depart="25400.00" departLane="S_in_1" departPos="5.10" departSpeed="13.82" departDelay="0.00" arrival="25408.00" arrivalLane="N_out_0" arrivalPos="8.47" arrivalSpeed="12.89" duration="8.00" routeLength="92.80" waitingTime="0.00" waitingCount="0" stopTime="0.00" timeLoss="0.39" rerouteNo="0" devices="tripinfo_0507_nb_thru_25200.18" vType="DEFAULT_VEHTYPE" speedFactor="0.89" vaporized=""/>
    <tripinfo id="0507_nb_left_25200.6" depart="25400.00" departLane="S_in_3" departPos="5.10" departSpeed="15.60" departDelay="0.00" arrival="25412.00" arrivalLane="SW_out_2" arrivalPos="89.18" arrivalSpeed="17.69" duration="12.00" routeLength="163.88" waitingTime="0.00" waitingCount="0" stopTime="0.00" timeLoss="0.94" rerouteNo="0" devices="tripinfo_0507_nb_left_25200.6" vType="DEFAULT_VEHTYPE" speedFactor="1.14" vaporized=""/>
    <tripinfo id="0507_nb_thru_25200.19" depart="25412.00" departLane="S_in_1" departPos="5.10" departSpeed="15.60" departDelay="0.89" arrival="25418.00" arrivalLane="N_out_0" arrivalPos="8.47" arrivalSpeed="16.64" duration="6.00" routeLength="92.80" waitingTime="0.00" waitingCount="0" stopTime="0.00" timeLoss="0.18" rerouteNo="0" devices="tripinfo_0507_nb_thru_25200.19" vType="DEFAULT_VEHTYPE" speedFactor="1.07" vaporized=""/>