<?xml version="1.0" encoding="UTF-8"?>

<!-- generated on 2026-07-11T23:35:21.003479+09:00 by Eclipse SUMO sumo 1.27.1
<sumoConfiguration xmlns:xsi="http://www.w3.org/2001/XMLSchema-instance" xsi:noNamespaceSchemaLocation="http://sumo.dlr.de/xsd/sumoConfiguration.xsd">

    <input>
        <net-file value="/home/andy/Downloads/GDOT/sumotwin/7065.net.xml"/>
        <route-files value="/home/andy/Downloads/GDOT/rlagent/../sumodemand/0507.rou.xml"/>
    </input>

    <output>
        <tripinfo-output value="/home/andy/Downloads/GDOT/rlagent//tmp/claude-1000/-home-andy-Downloads-GDOT/df1c247e-d5e2-4517-b14d-d1fbf40688ed/scratchpad/testout/tripinfo_fixed_0507.xml"/>
    </output>

    <time>
        <begin value="54000"/>
        <end value="64800"/>
    </time>

    <processing>
        <scale value="1.0"/>
        <time-to-teleport value="300"/>
    </processing>

    <report>
        <no-warnings value="true"/>
        <duration-log.disable value="true"/>
        <no-step-log value="true"/>
    </report>

    <traci_server>
        <remote-port value="35467"/>
    </traci_server>

    <random_number>
        <seed value="42"/>
    </random_number>

</sumoConfiguration>
-->

<tripinfos xmlns:xsi="http://www.w3.org/2001/XMLSchema-instance" xsi:noNamespaceSchemaLocation="http://sumo.dlr.de/xsd/tripinfo_file.xsd">
    <tripinfo id="0507_eb_left_54000.0" depart="54000.00" departLane="SW_in_3" departPos="5.10" departSpeed="15.60" departDelay="0.00" arrival="54011.00" arrivalLane="N_out_0" arrivalPos="8.47" arrivalSpeed="13.18" duration="11.00" routeLength="128.92" waitingTime="0.00" waitingCount="0" stopTime="0.00" timeLoss="2.32" rerouteNo="0" devices="tripinfo_0507_eb_left_54000.0" vType="DEFAULT_VEHTYPE" speedFactor="1.08" vaporized=""/>
    <tripinfo id="0507_wb_left_54000.0" depart="54000.00" departLane="NE_in_3" departPos="5.10" departSpeed="15.60" departDelay="0.00" arrival="54013.00" arrivalLane="S_out_0" arrivalPos="49.20" arrivalSpeed="17.15" duration="13.00" routeLength="174.95" waitingTime="0.00" waitingCount="0" stopTime="0.00" timeLoss="1.88" rerouteNo="0" devices="tripinfo_0507_wb_left_54000.0" vType="DEFAULT_VEHTYPE" speedFactor="1.13" vaporized=""/>
    <tripinfo id="0507_wb_thru_54000.0" depart="54000.00" departLane="NE_in_0" departPos="5.10" departSpeed="15.60" departDelay="0.00" arrival="54014.00" arrivalLane="SW_out_0" arrivalPos="89.18" arrivalSpeed="15.53" duration="14.00" routeLength="208.55" waitingTime="0.00" waitingCount="0" stopTime="0.00" timeLoss="0.60" rerouteNo="0" devices="tripinfo_0507_wb_thru_54000.0" vType="DEFAULT_VEHTYPE" speedFactor="1.03" vaporized=""/>
    <tripinfo id="0507_eb_thru_54000.0" depart="54000.00" departLane="SW_in_0" departPos="5.10" departSpeed="14.53" departDelay="0.00" arrival="54015.00" arrivalLane="NE_out_0" arrivalPos="94.79" arrivalSpeed="14.30" duration="15.00" routeLength="208.93" waitingTime="0.00" waitingCount="0" stopTime="0.00" timeLoss="0.57" rerouteNo="0" devices="tripinfo_0507_eb_thru_54000.0" vType="DEFAULT_VEHTYPE" speedFactor="0.93" vaporized=""/>
    <tripinfo id="0507_eb_thru_54000.1" depart="54004.00" departLane="SW_in_0" departPos="5.10" departSpeed="13.77" departDelay="0.05" arrival="54021.00" arrivalLane="NE_out_0" arrivalPos="94.79" arrivalSpeed="12.61" duration="17.00" routeLength="208.93" waitingTime="0.00" waitingCount="0" stopTime="0.00" timeLoss="1.07" rerouteNo="0" devices="tripinfo_0507_eb_thru_54000.1" vType="DEFAULT_VEHTYPE" speedFactor="0.88" vaporized=""/>
    <tripinfo id="0507_wb_thru_54000.1" depart="54007.00" departLane="NE_in_0" departPos="5.10" departSpeed="15.60" departDelay="0.88" arrival="54021.00" arrivalLane="SW_out_0" arrivalPos="89.18" arrivalSpeed="15.29" duration="14.00" routeLength="208.55" waitingTime="0.00" waitingCount="0" stopTime="0.00" timeLoss="0.60" rerouteNo="0" devices="tripinfo_0507_wb_thru_54000.1" vType="DEFAULT_VEHTYPE" speedFactor="1.00" vaporized=""/>
    <tripinfo id="0507_eb_thru_54000.2" depart="54008.00" departLane="SW_in_1" departPos="5.10" departSpeed="15.52" departDelay="0.11" arrival="54022.00" arrivalLane="NE_out_1" arrivalPos="94.79" arrivalSpeed="15.11" duration="14.00" routeLength="208.93" waitingTime="0.00" waitingCount="0" stopTime="0.00" timeLoss="0.50" rerouteNo="0" devices="tripinfo_0507_eb_thru_54000.2" vType="DEFAULT_VEHTYPE" speedFactor="0.99" vaporized=""/>
    <tripinfo id="0507_eb_thru_54000.3" depart="54012.00" departLane="SW_in_0" departPos="5.10" departSpeed="15.60" departDelay="0.16" arrival="54024.00" arrivalLane="NE_out_0" arrivalPos="94.79" arrivalSpeed="17.90" duration="12.00" routeLength="208.93" waitingTime="0.00" waitingCount="0" stopTime="0.00" timeLoss="0.43" rerouteNo="0" devices="tripinfo_0507_eb_thru_54000.3" vType="DEFAULT_VEHTYPE" speedFactor="1.16" vaporized=""/>
    <tripinfo id="0507_wb_thru_54000.2" depart="54013.00" departLane="NE_in_0" departPos="5.10" departSpeed="14.60" departDelay="0.76" arrival="54028.00" arrivalLane="SW_out_0" arrivalPos="89.18" arrivalSpeed="14.17" duration="15.00" routeLength="208.55" waitingTime="0.00" waitingCount="0" stopTime="0.00" timeLoss="0.67" rerouteNo="0" devices="tripinfo_0507_wb_thru_54000.2" vType="DEFAULT_VEHTYPE" speedFactor="0.94" vaporized=""/>
    <tripinfo id="0507_eb_thru_54000.4" depart="54016.00" departLane="SW_in_0" departPos="5.10" departSpeed="13.68" departDelay="0.21" arrival="54032.00" arrivalLane="NE_out_0" arrivalPos="94.79" arrivalSpeed="13.64" duration="16.00" routeLength="208.93" waitingTime="0.00" waitingCount="0" stopTime="0.00" timeLoss="0.70" rerouteNo="0" devices="tripinfo_0507_eb_thru_54000.4" vType="DEFAULT_VEHTYPE" speedFactor="0.88" vaporized=""/>
    <tripinfo id="0507_eb_thru_54000.5" depart="54020.00" departLane="SW_in_1" departPos="5.10" departSpeed="15.60" departDelay="0.27" arrival="54032.00" arrivalLane="NE_out_1" arrivalPos="94.79" arrivalSpeed="18.29" duration="12.00" routeLength="208.93" waitingTime="0.00" waitingCount="0" stopTime="0.00" timeLoss="0.52" rerouteNo="0" devices="tripinfo_0507_eb_thru_54000.5" vType="DEFAULT_VEHTYPE" speedFactor="1.24" vaporized=""/>
    <tripinfo id="0507_wb_thru_54000.3" depart="54019.00" departLane="NE_in_0" departPos="5.10" departSpeed="15.60" departDelay="0.63" arrival="54033.00" arrivalLane="SW_out_0" arrivalPos="89.18" arrivalSpeed="15.49" duration="14.00" routeLength="208.55" waitingTime="0.00" waitingCount="0" stopTime="0.00" timeLoss="0.50" rerouteNo="0" devices="tripinfo_0507_wb_thru_54000.3" vType="DEFAULT_VEHTYPE" speedFactor="1.00" vaporized=""/>
    <tripinfo id="0507_nb_left_54000.0" depart="54000.00" departLane="S_in_3" departPos="5.10" departSpeed="15.60" departDelay="0.00" arrival="54046.00" arrivalLane="SW_out_2" arrivalPos="89.18" arrivalSpeed="16.35" duration="46.00" routeLength="163.88" waitingTime="28.00" waitingCount="1" stopTime="0.00" timeLoss="34.74" rerouteNo="0" devices="tripinfo_0507_nb_left_54000.0" vType="DEFAULT_VEHTYPE" speedFactor="1.07" vaporized=""/>
    <tripinfo id="0507_sb_left_54000.0" depart="54000.00" departLane="N_far_2" departPos="5.10" departSpeed="13.75" departDelay="0.00" arrival="54047.00" arrivalLane="NE_out_2" arrivalPos="94.79" arrivalSpeed="12.67" duration="47.00" routeLength="173.67" waitingTime="29.00" waitingCount="1" stopTime="0.00" timeLoss="33.40" rerouteNo="0" devices="tripinfo_0507_sb_left_54000.0" vType="DEFAULT_VEHTYPE" speedFactor="0.88" vaporized=""/>
    <tripinfo id="0507_nb_thru_54000.0" depart="54000.00" departLane="S_in_1" departPos="5.10" departSpeed="14.79" departDelay="0.00" arrival="54050.00" arrivalLane="N_out_0" arrivalPos="8.47" arrivalSpeed="13.61" duration="50.00" routeLength="92.80" waitingTime="37.00" waitingCount="1" stopTime="0.00" timeLoss="43.05" rerouteNo="0" devices="tripinfo_0507_nb_thru_54000.0" vType="DEFAULT_VEHTYPE" speedFactor="0.95" vaporized=""/>
    <tripinfo id="0507_nb_thru_54000.1" depart="54016.00" departLane="S_in_2" departPos="5.10" departSpeed="15.45" departDelay="0.21" arrival="54050.00" arrivalLane="N_out_1" arrivalPos="8.47" arrivalSpeed="14.07" duration="34.00" routeLength="92.80" waitingTime="21.00" waitingCount="1" stopTime="0.00" timeLoss="27.85" rerouteNo="0" devices="tripinfo_0507_nb_thru_54000.1" vType="DEFAULT_VEHTYPE" speedFactor="0.99" vaporized=""/>
    <tripinfo id="0507_nb_left_54000.1" depart="54024.00" departLane="S_in_3" departPos="5.10" departSpeed="0.00" departDelay="0.92" arrival="54050.00" arrivalLane="SW_out_2" arrivalPos="89.18" arrivalSpeed="13.18" duration="26.00" routeLength="163.88" waitingTime="3.00" waitingCount="1" stopTime="0.00" timeLoss="12.16" rerouteNo="0" devices="tripinfo_0507_nb_left_54000.1" vType="DEFAULT_VEHTYPE" speedFactor="0.87" vaporized=""/>
    <tripinfo id="0507_sb_thru_54000.0" depart="54000.00" departLane="N_far_1" departPos="5.10" departSpeed="15.60" departDelay="0.00" arrival="54052.00" arrivalLane="S_out_0" arrivalPos="49.20" arrivalSpeed="17.16" duration="52.00" routeLength="137.80" waitingTime="37.00" waitingCount="1" stopTime="0.00" timeLoss="44.17" rerouteNo="0" devices="tripinfo_0507_sb_thru_54000.0" vType="DEFAULT_VEHTYPE" speedFactor="1.16" vaporized=""/>
    <tripinfo id="0507_nb_thru_54000.2" depart="54032.00" departLane="S_in_1" departPos="5.10" departSpeed="0.00" departDelay="0.42" arrival="54052.00" arrivalLane="N_out_0" arrivalPos="8.47" arrivalSpeed="13.76" duration="20.00" routeLength="92.80" waitingTime="4.00" waitingCount="1" stopTime="0.00" timeLoss="12.89" rerouteNo="0" devices="tripinfo_0507_nb_thru_54000.2" vType="DEFAULT_VEHTYPE" speedFactor="0.94" vaporized=""/>
    <tripinfo id="0507_sb_thru_54000.1" depart="54006.00" departLane="N_far_1" departPos="5.10" departSpeed="13.18" departDelay="0.92" arrival="54054.00" arrivalLane="S_out_0" arrivalPos="49.20" arrivalSpeed="12.59" duration="48.00" routeLength="137.80" waitingTime="28.00" waitingCount="1" stopTime="0.00" timeLoss="36.61" rerouteNo="0" devices="tripinfo_0507_sb_thru_54000.1" vType="DEFAULT_VEHTYPE" speedFactor="0.84" vaporized=""/>
    <tripinfo id="0507_sb_thru_54000.3" depart="54016.00" departLane="N_far_1" departPos="5.10" departSpeed="14.71" departDelay="0.75" arrival="54054.00" arrivalLane="S_out_1" arrivalPos="49.20" arrivalSpeed="16.52" duration="38.00" routeLength="137.80" waitingTime="20.00" waitingCount="1" stopTime="0.00" timeLoss="30.13" rerouteNo="0" devices="tripinfo_0507_sb_thru_54000.3" vType="DEFAULT_VEHTYPE" speedFactor="1.13" vaporized=""/>
    <tripinfo id="0507_nb_thru_54000.3" depart="54048.00" departLane="S_in_1" departPos="5.10" departSpeed="14.88" departDelay="0.63" arrival="54055.00" arrivalLane="N_out_0" arrivalPos="8.47" arrivalSpeed="13.81" duration="7.00" routeLength="92.80" waitingTime="0.00" waitingCount="0" stopTime="0.00" timeLoss="0.36" rerouteNo="0" devices="tripinfo_0507_nb_thru_54000.3" vType="DEFAULT_VEHTYPE" speedFactor="0.95" vaporized=""/>
    <tripinfo id="0507_sb_thru_54000.2" depart="54011.00" departLane="N_far_1" departPos="5.10" departSpeed="12.72" departDelay="0.83" arrival="54056.00" arrivalLane="S_out_0" arrivalPos="49.20" arrivalSpeed="12.36" duration="45.00" routeLength="137.80" waitingTime="27.00" waitingCount="1" stopTime="0.00" timeLoss="33.78" rerouteNo="0" devices="tripinfo_0507_sb_thru_54000.2" vType="DEFAULT_VEHTYPE" speedFactor="0.82" vaporized=""/>
    <tripinfo id="0507_sb_thru_54000.4" depart="54021.00" departLane="N_far_1" departPos="5.10" departSpeed="14.82" departDelay="0.66" arrival="54058.00" arrivalLane="S_out_0" arrivalPos="49.20" arrivalSpeed="15.98" duration="37.00" routeLength="137.80" waitingTime="18.00" waitingCount="1" stopTime="0.00" timeLoss="28.16" rerouteNo="0" devices="tripinfo_0507_sb_thru_54000.4" vType="DEFAULT_VEHTYPE" speedFactor="1.10" vaporized=""/>
    <tripinfo id="0507_sb_thru_54000.6" depart="54031.00" departLane="N_far_1" departPos="5.10" departSpeed="0.04" departDelay="0.50" arrival="54058.00" arrivalLane="S_out_1" arrivalPos="49.20" arrivalSpeed="15.35" duration="27.00" routeLength="137.80" waitingTime="9.00" waitingCount="1" stopTime="0.00" timeLoss="17.48" rerouteNo="0" devices="tripinfo_0507_sb_thru_54000.6" vType="DEFAULT_VEHTYPE" speedFactor="1.00" vaporized=""/>
    <tripinfo id="0507_sb_thru_54000.5" depart="54026.00" departLane="N_far_1" departPos="5.10" departSpeed="12.66" departDelay="0.58" arrival="54059.00" arrivalLane="S_out_0" arrivalPos="49.20" arrivalSpeed="15.12" duration="33.00" routeLength="137.80" waitingTime="16.00" waitingCount="1" stopTime="0.00" timeLoss="24.77" rerouteNo="0" devices="tripinfo_0507_sb_thru_54000.5" vType="DEFAULT_VEHTYPE" speedFactor="1.08" vaporized=""/>
    <tripinfo id="0507_sb_thru_54000.8" depart="54041.00" departLane="N_far_2" departPos="5.10" departSpeed="0.00" departDelay="0.33" arrival="54060.00" arrivalLane="S_out_1" arrivalPos="49.20" arrivalSpeed="15.32" duration="19.00" routeLength="137.80" waitingTime="0.00" waitingCount="0" stopTime="0.00" timeLoss="9.78" rerouteNo="0" devices="tripinfo_0507_sb_thru_54000.8" vType="DEFAULT_VEHTYPE" speedFactor="1.06" vaporized=""/>
    <tripinfo id="0507_sb_thru_54000.9" depart="54046.00" departLane="N_far_1" departPos="5.10" departSpeed="0.00" departDelay="0.24" arrival="54061.00" arrivalLane="S_out_1" arrivalPos="49.20" arrivalSpeed="13.25" duration="15.00" routeLength="137.80" waitingTime="0.00" waitingCount="0" stopTime="0.00" timeLoss="5.33" rerouteNo="0" devices="tripinfo_0507_sb_thru_54000.9" vType="DEFAULT_VEHTYPE" speedFactor="0.92" vaporized=""/>
    <tripinfo id="0507_sb_thru_54000.7" depart="54036.00" departLane="N_far_1" departPos="5.10" departSpeed="0.00" departDelay="0.41" arrival="54062.00" arrivalLane="S_out_0" arrivalPos="49.20" arrivalSpeed="12.81" duration="26.00" routeLength="137.80" waitingTime="5.00" waitingCount="1" stopTime="0.00" timeLoss="14.58" rerouteNo="0" devices="tripinfo_0507_sb_thru_54000.7" vType="DEFAULT_VEHTYPE" speedFactor="0.82" vaporized=""/>
    <tripinfo id="0507_sb_thru_54000.10" depart="54052.00" departLane="N_far_1" departPos="5.10" departSpeed="13.27" departDelay="1.16" arrival="54063.00" arrivalLane="S_out_0" arrivalPos="49.20" arrivalSpeed="14.06" duration="11.00" routeLength="137.80" waitingTime="0.00" waitingCount="0" stopTime="0.00" timeLoss="2.06" rerouteNo="0" devices="tripinfo_0507_sb_thru_54000.10" vType="DEFAULT_VEHTYPE" speedFactor="0.99" vaporized=""/>
    <tripinfo id="0507_sb_left_54000.1" depart="54025.00" departLane="N_far_2" departPos="5.10" departSpeed="14.82" departDelay="0.00" arrival="54065.00" arrivalLane="NE_out_2" arrivalPos="94.79" arrivalSpeed="17.09" duration="40.00" routeLength="173.67" waitingTime="18.00" waitingCount="2" stopTime="0.00" timeLoss="28.79" rerouteNo="0" devices="tripinfo_0507_sb_left_54000.1" vType="DEFAULT_VEHTYPE" speedFactor="1.12" vaporized=""/>
    <tripinfo id="0507_sb_thru_54000.11" depart="54056.00" departLane="N_far_1" departPos="5.10" departSpeed="15.60" departDelay="0.08" arrival="54065.00" arrivalLane="S_out_0" arrivalPos="49.20" arrivalSpeed="15.98" duration="9.00" routeLength="137.80" waitingTime="0.00" waitingCount="0" stopTime="0.00" timeLoss="0.37" rerouteNo="0" devices="tripinfo_0507_sb_thru_54000.11" vType="DEFAULT_VEHTYPE" speedFactor="1.03" vaporized=""/>
    <tripinfo id="0507_sb_left_54000.2" depart="54050.00" departLane="N_far_2" departPos="5.10" departSpeed="5.09" departDelay="0.00" arrival="54067.00" arrivalLane="NE_out_2" arrivalPos="94.79" arrivalSpeed="16.59" duration="17.00" routeLength="173.67" waitingTime="0.00" waitingCount="0" stopTime="0.00" timeLoss="6.10" rerouteNo="0" devices="tripinfo_0507_sb_left_54000.2" vType="DEFAULT_VEHTYPE" speedFactor="1.12" vaporized=""/>
    <tripinfo id="0507_nb_left_54000.2" depart="54047.00" departLane="S_in_3" departPos="5.10" departSpeed="13.41" departDelay="0.85" arrival="54073.00" arrivalLane="SW_out_2" arrivalPos="89.18" arrivalSpeed="13.20" duration="26.00" routeLength="163.88" waitingTime="6.00" waitingCount="1" stopTime="0.00" timeLoss="12.65" rerouteNo="0" devices="tripinfo_0507_nb_left_54000.2" vType="DEFAULT_VEHTYPE" speedFactor="0.86" vaporized=""/>
    <tripinfo id="0507_eb_left_54000.1" depart="54030.00" departLane="SW_in_3" departPos="5.10" departSpeed="14.14" departDelay="0.00" arrival="54077.00" arrivalLane="N_out_0" arrivalPos="8.47" arrivalSpeed="11.37" duration="47.00" routeLength="128.92" waitingTime="31.00" waitingCount="1" stopTime="0.00" timeLoss="37.31" rerouteNo="0" devices="tripinfo_0507_eb_left_54000.1" vType="DEFAULT_VEHTYPE" speedFactor="0.91" vaporized=""/>
    <tripinfo id="0507_eb_left_54000.2" depart="54060.00" departLane="SW_in_4" departPos="5.10" departSpeed="15.60" departDelay="0.00" arrival="54077.00" arrivalLane="N_out_1" arrivalPos="8.47" arrivalSpeed="12.48" duration="17.00" routeLength="124.47" waitingTime="3.00" waitingCount="1" stopTime="0.00" timeLoss="9.39" rerouteNo="0" devices="tripinfo_0507_eb_left_54000.2" vType="DEFAULT_VEHTYPE" speedFactor="1.14" vaporized=""/>
    <tripinfo id="0507_wb_thru_54000.5" depart="54031.00" departLane="NE_in_0" departPos="5.10" departSpeed="15.60" departDelay="0.39" arrival="54086.00" arrivalLane="SW_out_1" arrivalPos="89.18" arrivalSpeed="15.99" duration="55.00" routeLength="208.55" waitingTime="32.00" waitingCount="1" stopTime="0.00" timeLoss="42.52" rerouteNo="0" devices="tripinfo_0507_wb_thru_54000.5" vType="DEFAULT_VEHTYPE" speedFactor="1.08" vaporized=""/>
    <tripinfo id="0507_eb_thru_54000.10" depart="54040.00" departLane="SW_in_2" departPos="5.10" departSpeed="15.60" departDelay="0.53" arrival="54086.00" arrivalLane="NE_out_2" arrivalPos="94.79" arrivalSpeed="17.09" duration="46.00" routeLength="208.93" waitingTime="26.00" waitingCount="1" stopTime="0.00" timeLoss="34.17" rerouteNo="0" devices="tripinfo_0507_eb_thru_54000.10" vType="DEFAULT_VEHTYPE" speedFactor="1.15" vaporized=""/>
    <tripinfo id="0507_eb_thru_54000.6" depart="54024.00" departLane="SW_in_0" departPos="5.10" departSpeed="15.60" departDelay="0.32" arrival="54087.00" arrivalLane="NE_out_0" arrivalPos="94.79" arrivalSpeed="15.42" duration="63.00" routeLength="208.93" waitingTime="43.00" waitingCount="1" stopTime="0.00" timeLoss="49.74" rerouteNo="0" devices="tripinfo_0507_eb_thru_54000.6" vType="DEFAULT_VEHTYPE" speedFactor="1.05" vaporized=""/>
    <tripinfo id="0507_wb_thru_54000.4" depart="54025.00" departLane="NE_in_0" departPos="5.10" departSpeed="15.13" departDelay="0.51" arrival="54087.00" arrivalLane="SW_out_0" arrivalPos="89.18" arrivalSpeed="14.74" duration="62.00" routeLength="208.55" waitingTime="40.00" waitingCount="1" stopTime="0.00" timeLoss="47.94" rerouteNo="0" devices="tripinfo_0507_wb_thru_54000.4" vType="DEFAULT_VEHTYPE" speedFactor="0.97" vaporized=""/>
    <tripinfo id="0507_eb_thru_54000.8" depart="54032.00" departLane="SW_in_1" departPos="5.10" departSpeed="15.60" departDelay="0.42" arrival="54087.00" arrivalLane="NE_out_1" arrivalPos="94.79" arrivalSpeed="16.15" duration="55.00" routeLength="208.93" waitingTime="35.00" waitingCount="1" stopTime="0.00" timeLoss="42.14" rerouteNo="0" devices="tripinfo_0507_eb_thru_54000.8" vType="DEFAULT_VEHTYPE" speedFactor="1.08" vaporized=""/>
    <tripinfo id="0507_wb_thru_54000.7" depart="54043.00" departLane="NE_in_0" departPos="5.10" departSpeed="15.60" departDelay="0.15" arrival="54087.00" arrivalLane="SW_out_1" arrivalPos="89.18" arrivalSpeed="15.88" duration="44.00" routeLength="208.55" waitingTime="20.00" waitingCount="1" stopTime="0.00" timeLoss="30.79" rerouteNo="0" devices="tripinfo_0507_wb_thru_54000.7" vType="DEFAULT_VEHTYPE" speedFactor="1.07" vaporized=""/>
    <tripinfo id="0507_eb_thru_54000.11" depart="54044.00" departLane="SW_in_1" departPos="5.10" departSpeed="0.00" departDelay="0.58" arrival="54088.00" arrivalLane="NE_out_2" arrivalPos="94.79" arrivalSpeed="15.20" duration="44.00" routeLength="208.93" waitingTime="21.00" waitingCount="1" stopTime="0.00" timeLoss="31.18" rerouteNo="0" devices="tripinfo_0507_eb_thru_54000.11" vType="DEFAULT_VEHTYPE" speedFactor="1.06" vaporized=""/>
    <tripinfo id="0507_eb_thru_54000.7" depart="54028.00" departLane="SW_in_0" departPos="5.10" departSpeed="14.65" departDelay="0.37" arrival="54089.00" arrivalLane="NE_out_0" arrivalPos="94.79" arrivalSpeed="13.63" duration="61.00" routeLength="208.93" waitingTime="41.00" waitingCount="1" stopTime="0.00" timeLoss="46.66" rerouteNo="0" devices="tripinfo_0507_eb_thru_54000.7" vType="DEFAULT_VEHTYPE" speedFactor="0.94" vaporized=""/>
    <tripinfo id="0507_eb_thru_54000.9" depart="54036.00" departLane="SW_in_0" departPos="5.10" departSpeed="0.02" departDelay="0.48" arrival="54089.00" arrivalLane="NE_out_1" arrivalPos="94.79" arrivalSpeed="15.29" duration="53.00" routeLength="208.93" waitingTime="28.00" waitingCount="1" stopTime="0.00" timeLoss="39.59" rerouteNo="0" devices="tripinfo_0507_eb_thru_54000.9" vType="DEFAULT_VEHTYPE" speedFactor="1.01" vaporized=""/>
    <tripinfo id="0507_wb_thru_54000.6" depart="54037.00" departLane="NE_in_0" departPos="5.10" departSpeed="15.60" departDelay="0.27" arrival="54089.00" arrivalLane="SW_out_0" arrivalPos="89.18" arrivalSpeed="16.69" duration="52.00" routeLength="208.55" waitingTime="32.00" waitingCount="1" stopTime="0.00" timeLoss="39.78" rerouteNo="0" devices="tripinfo_0507_wb_thru_54000.6" vType="DEFAULT_VEHTYPE" speedFactor="1.15" vaporized=""/>
    <tripinfo id="0507_wb_thru_54000.10" depart="54062.00" departLane="NE_in_0" departPos="5.10" departSpeed="15.60" departDelay="0.78" arrival="54089.00" arrivalLane="SW_out_2" arrivalPos="89.18" arrivalSpeed="15.48" duration="27.00" routeLength="208.55" waitingTime="3.00" waitingCount="1" stopTime="0.00" timeLoss="13.38" rerouteNo="0" devices="tripinfo_0507_wb_thru_54000.10" vType="DEFAULT_VEHTYPE" speedFactor="1.05" vaporized=""/>
    <tripinfo id="0507_wb_thru_54000.8" depart="54049.00" departLane="NE_in_0" departPos="5.10" departSpeed="12.91" departDelay="0.02" arrival="54090.00" arrivalLane="SW_out_1" arrivalPos="89.18" arrivalSpeed="12.70" duration="41.00" routeLength="208.55" waitingTime="16.00" waitingCount="1" stopTime="0.00" timeLoss="23.88" rerouteNo="0" devices="tripinfo_0507_wb_thru_54000.8" vType="DEFAULT_VEHTYPE" speedFactor="0.83" vaporized=""/>
    <tripinfo id="0507_eb_thru_54000.12" depart="54048.00" departLane="SW_in_0" departPos="5.10" departSpeed="0.00" departDelay="0.64" arrival="54091.00" arrivalLane="NE_out_0" arrivalPos="94.79" arrivalSpeed="14.36" duration="43.00" routeLength="208.93" waitingTime="19.00" waitingCount="1" stopTime="0.00" timeLoss="28.57" rerouteNo="0" devices="tripinfo_0507_eb_thru_54000.12" vType="DEFAULT_VEHTYPE" speedFactor="0.94" vaporized=""/>
    <tripinfo id="0507_eb_thru_54000.14" depart="54056.00" departLane="SW_in_1" departPos="5.10" departSpeed="0.00" departDelay="0.74" arrival="54091.00" arrivalLane="NE_out_2" arrivalPos="94.79" arrivalSpeed="13.92" duration="35.00" routeLength="208.93" waitingTime="8.00" waitingCount="1" stopTime="0.00" timeLoss="20.10" rerouteNo="0" devices="tripinfo_0507_eb_thru_54000.14" vType="DEFAULT_VEHTYPE" speedFactor="0.92" vaporized=""/>
    <tripinfo id="0507_wb_thru_54000.9" depart="54056.00" departLane="NE_in_0" departPos="5.10" departSpeed="15.60" departDelay="0.90" arrival="54091.00" arrivalLane="SW_out_0" arrivalPos="89.18" arrivalSpeed="14.99" duration="35.00" routeLength="208.55" waitingTime="14.00" waitingCount="1" stopTime="0.00" timeLoss="21.46" rerouteNo="0" devices="tripinfo_0507_wb_thru_54000.9" vType="DEFAULT_VEHTYPE" speedFactor="1.04" vaporized=""/>
    <tripinfo id="0507_wb_thru_54000.11" depart="54068.00" departLane="NE_in_0" departPos="5.10" departSpeed="15.60" departDelay="0.66" arrival="54091.00" arrivalLane="SW_out_1" arrivalPos="89.18" arrivalSpeed="13.82" duration="23.00" routeLength="208.55" waitingTime="0.00" waitingCount="0" stopTime="0.00" timeLoss="11.78" rerouteNo="0" devices="tripinfo_0507_wb_thru_54000.11" vType="DEFAULT_VEHTYPE" speedFactor="1.21" vaporized=""/>
    <tripinfo id="0507_eb_thru_54000.13" depart="54052.00" departLane="SW_in_0" departPos="5.10" departSpeed="2.71" departDelay="0.69" arrival="54092.00" arrivalLane="NE_out_1" arrivalPos="94.79" arrivalSpeed="13.16" duration="40.00" routeLength="208.93" waitingTime="16.00" waitingCount="1" stopTime="0.00" timeLoss="24.17" rerouteNo="0" devices="tripinfo_0507_eb_thru_54000.13" vType="DEFAULT_VEHTYPE" speedFactor="0.85" vaporized=""/>
    <tripinfo id="0507_eb_thru_54000.15" depart="54060.00" departLane="SW_in_2" departPos="5.10" departSpeed="0.00" departDelay="0.80" arrival="54093.00" arrivalLane="NE_out_2" arrivalPos="94.79" arrivalSpeed="14.94" duration="33.00" routeLength="208.93" waitingTime="7.00" waitingCount="1" stopTime="0.00" timeLoss="19.17" rerouteNo="0" devices="tripinfo_0507_eb_thru_54000.15" vType="DEFAULT_VEHTYPE" speedFactor="1.02" vaporized=""/>
    <tripinfo id="0507_eb_thru_54000.16" depart="54064.00" departLane="SW_in_0" departPos="5.10" departSpeed="0.00" departDelay="0.85" arrival="54093.00" arrivalLane="NE_out_0" arrivalPos="94.79" arrivalSpeed="15.89" duration="29.00" routeLength="208.93" waitingTime="4.00" waitingCount="1" stopTime="0.00" timeLoss="15.92" rerouteNo="0" devices="tripinfo_0507_eb_thru_54000.16" vType="DEFAULT_VEHTYPE" speedFactor="1.07" vaporized=""/>
    <tripinfo id="0507_wb_thru_54000.12" depart="54074.00" departLane="NE_in_0" departPos="5.10" departSpeed="13.67" departDelay="0.54" arrival="54093.00" arrivalLane="SW_out_1" arrivalPos="89.18" arrivalSpeed="12.38" duration="19.00" routeLength="208.55" waitingTime="0.00" waitingCount="0" stopTime="0.00" timeLoss="3.27" rerouteNo="0" devices="tripinfo_0507_wb_thru_54000.12" vType="DEFAULT_VEHTYPE" speedFactor="0.88" vaporized=""/>
    <tripinfo id="0507_wb_thru_54000.13" depart="54080.00" departLane="NE_in_0" departPos="5.10" departSpeed="15.60" departDelay="0.41" arrival="54093.00" arrivalLane="SW_out_0" arrivalPos="89.18" arrivalSpeed="16.61" duration="13.00" routeLength="208.55" waitingTime="0.00" waitingCount="0" stopTime="0.00" timeLoss="0.50" rerouteNo="0" devices="tripinfo_0507_wb_thru_54000.13" vType="DEFAULT_VEHTYPE" speedFactor="1.09" vaporized=""/>
    <tripinfo id="0507_eb_thru_54000.17" depart="54068.00" departLane="SW_in_0" departPos="5.10" departSpeed="2.18" departDelay="0.90" arrival="54094.00" arrivalLane="NE_out_1" arrivalPos="94.79" arrivalSpeed="13.10" duration="26.00" routeLength="208.93" waitingTime="0.00" waitingCount="0" stopTime="0.00" timeLoss="10.54" rerouteNo="0" devices="tripinfo_0507_eb_thru_54000.17" vType="DEFAULT_VEHTYPE" speedFactor="0.87" vaporized=""/>
    <tripinfo id="0507_eb_thru_54000.19" depart="54075.00" departLane="SW_in_2" departPos="5.10" departSpeed="0.00" departDelay="0.01" arrival="54094.00" arrivalLane="NE_out_2" arrivalPos="94.79" arrivalSpeed="16.54" duration="19.00" routeLength="208.93" waitingTime="0.00" waitingCount="0" stopTime="0.00" timeLoss="6.49" rerouteNo="0" devices="tripinfo_0507_eb_thru_54000.19" vType="DEFAULT_VEHTYPE" speedFactor="1.08" vaporized=""/>
    <tripinfo id="0507_eb_thru_54000.18" depart="54072.00" departLane="SW_in_1" departPos="5.10" departSpeed="0.00" departDelay="0.95" arrival="54096.00" arrivalLane="NE_out_1" arrivalPos="94.79" arrivalSpeed="12.71" duration="24.00" routeLength="208.93" waitingTime="0.00" waitingCount="0" stopTime="0.00" timeLoss="8.68" rerouteNo="0" devices="tripinfo_0507_eb_thru_54000.18" vType="DEFAULT_VEHTYPE" speedFactor="0.88" vaporized=""/>
    <tripinfo id="0507_eb_thru_54000.20" depart="54079.00" departLane="SW_in_0" departPos="5.10" departSpeed="1.89" departDelay="0.06" arrival="54096.00" arrivalLane="NE_out_0" arrivalPos="94.79" arrivalSpeed="15.69" duration="17.00" routeLength="208.93" waitingTime="0.00" waitingCount="0" stopTime="0.00" timeLoss="3.48" rerouteNo="0" devices="tripinfo_0507_eb_thru_54000.20" vType="DEFAULT_VEHTYPE" speedFactor="1.05" vaporized=""/>
    <tripinfo id="0507_eb_thru_54000.21" depart="54083.00" departLane="SW_in_1" departPos="5.10" departSpeed="5.15" departDelay="0.11" arrival="54098.00" arrivalLane="NE_out_1" arrivalPos="94.79" arrivalSpeed="15.70" duration="15.00" routeLength="208.93" waitingTime="0.00" waitingCount="0" stopTime="0.00" timeLoss="2.29" rerouteNo="0" devices="tripinfo_0507_eb_thru_54000.21" vType="DEFAULT_VEHTYPE" speedFactor="1.08" vaporized=""/>
    <tripinfo id="0507_wb_thru_54000.14" depart="54086.00" departLane="NE_in_0" departPos="5.10" departSpeed="15.59" departDelay="0.29" arrival="54100.00" arrivalLane="SW_out_0" arrivalPos="89.18" arrivalSpeed="15.07" duration="14.00" routeLength="208.55" waitingTime="0.00" waitingCount="0" stopTime="0.00" timeLoss="0.58" rerouteNo="0" devices="tripinfo_0507_wb_thru_54000.14" vType="DEFAULT_VEHTYPE" speedFactor="1.00" vaporized=""/>
    <tripinfo id="0507_eb_left_54000.3" depart="54090.00" departLane="SW_in_3" departPos="5.10" departSpeed="14.95" departDelay="0.00" arrival="54101.00" arrivalLane="N_out_0" arrivalPos="8.47" arrivalSpeed="12.90" duration="11.00" routeLength="128.92" waitingTime="0.00" waitingCount="0" stopTime="0.00" timeLoss="1.90" rerouteNo="0" devices="tripinfo_0507_eb_left_54000.3" vType="DEFAULT_VEHTYPE" speedFactor="0.96" vaporized=""/>
    <tripinfo id="0507_eb_thru_54000.22" depart="54087.00" departLane="SW_in_0" departPos="5.10" departSpeed="15.32" departDelay="0.17" arrival="54102.00" arrivalLane="NE_out_0" arrivalPos="94.79" arrivalSpeed="14.86" duration="15.00" routeLength="208.93" waitingTime="0.00" waitingCount="0" stopTime="0.00" timeLoss="0.75" rerouteNo="0" devices="tripinfo_0507_eb_thru_54000.22" vType="DEFAULT_VEHTYPE" speedFactor="0.98" vaporized=""/>