<?xml version="1.0" encoding="UTF-8"?>

<!-- generated on 2026-07-10T18:26:07.178857+09:00 by Eclipse SUMO sumo 1.27.1
<sumoConfiguration xmlns:xsi="http://www.w3.org/2001/XMLSchema-instance" xsi:noNamespaceSchemaLocation="http://sumo.dlr.de/xsd/sumoConfiguration.xsd">

    <input>
        <net-file value="/home/andy/Downloads/GDOT/sumotwin/7065.net.xml"/>
        <route-files value="/home/andy/Downloads/GDOT/rlagent/../sumodemand/0507.rou.xml"/>
    </input>

    <output>
        <tripinfo-output value="/home/andy/Downloads/GDOT/rlagent/results/tripinfo_rl_0507.xml"/>
    </output>

    <time>
        <begin value="25200"/>
        <end value="36000"/>
    </time>

    <processing>
        <time-to-teleport value="300"/>
    </processing>

    <report>
        <no-warnings value="true"/>
        <duration-log.disable value="true"/>
        <no-step-log value="true"/>
    </report>

    <traci_server>
        <remote-port value="35141"/>
    </traci_server>

    <random_number>
        <seed value="9999"/>
    </random_number>

</sumoConfiguration>
-->

<tripinfos xmlns:xsi="http://www.w3.org/2001/XMLSchema-instance" xsi:noNamespaceSchemaLocation="http://sumo.dlr.de/xsd/tripinfo_file.xsd">
    <tripinfo id="0507_eb_left_25200.0" depart="25200.00" departLane="SW_in_3" departPos="5.10" departSpeed="15.25" departDelay="0.00" arrival="25217.00" arrivalLane="N_out_0" arrivalPos="8.47" arrivalSpeed="13.85" duration="17.00" routeLength="128.92" waitingTime="2.00" waitingCount="1" stopTime="0.00" timeLoss="7.87" rerouteNo="0" devices="tripinfo_0507_eb_left_25200.0" vType="DEFAULT_VEHTYPE" speedFactor="0.98" vaporized=""/>
    <tripinfo id="0507_eb_thru_25200.1" depart="25207.00" departLane="SW_in_1" departPos="5.10" departSpeed="15.60" departDelay="0.02" arrival="25221.00" arrivalLane="NE_out_1" arrivalPos="94.79" arrivalSpeed="16.00" duration="14.00" routeLength="208.93" waitingTime="0.00" waitingCount="0" stopTime="0.00" timeLoss="0.46" rerouteNo="0" devices="tripinfo_0507_eb_thru_25200.1" vType="DEFAULT_VEHTYPE" speedFactor="1.05" vaporized=""/>
    <tripinfo id="0507_eb_thru_25200.0" depart="25200.00" departLane="SW_in_0" departPos="5.10" departSpeed="13.87" departDelay="0.00" arrival="25223.00" arrivalLane="NE_out_0" arrivalPos="94.79" arrivalSpeed="12.62" duration="23.00" routeLength="208.93" waitingTime="1.00" waitingCount="1" stopTime="0.00" timeLoss="7.38" rerouteNo="0" devices="tripinfo_0507_eb_thru_25200.0" vType="DEFAULT_VEHTYPE" speedFactor="0.89" vaporized=""/>
    <tripinfo id="0507_eb_thru_25200.2" depart="25214.00" departLane="SW_in_0" departPos="5.10" departSpeed="14.02" departDelay="0.05" arrival="25230.00" arrivalLane="NE_out_0" arrivalPos="94.79" arrivalSpeed="13.65" duration="16.00" routeLength="208.93" waitingTime="0.00" waitingCount="0" stopTime="0.00" timeLoss="0.72" rerouteNo="0" devices="tripinfo_0507_eb_thru_25200.2" vType="DEFAULT_VEHTYPE" speedFactor="0.90" vaporized=""/>
    <tripinfo id="0507_eb_thru_25200.3" depart="25221.00" departLane="SW_in_0" departPos="5.10" departSpeed="13.87" departDelay="0.07" arrival="25237.00" arrivalLane="NE_out_0" arrivalPos="94.79" arrivalSpeed="12.98" duration="16.00" routeLength="208.93" waitingTime="0.00" waitingCount="0" stopTime="0.00" timeLoss="0.49" rerouteNo="0" devices="tripinfo_0507_eb_thru_25200.3" vType="DEFAULT_VEHTYPE" speedFactor="0.89" vaporized=""/>
    <tripinfo id="0507_wb_left_25200.0" depart="25200.00" departLane="NE_in_3" departPos="5.10" departSpeed="15.50" departDelay="0.00" arrival="25250.00" arrivalLane="S_out_0" arrivalPos="49.20" arrivalSpeed="15.24" duration="50.00" routeLength="174.95" waitingTime="32.00" waitingCount="1" stopTime="0.00" timeLoss="38.24" rerouteNo="0" devices="tripinfo_0507_wb_left_25200.0" vType="DEFAULT_VEHTYPE" speedFactor="0.99" vaporized=""/>
    <tripinfo id="0507_eb_thru_25200.5" depart="25235.00" departLane="SW_in_1" departPos="5.10" departSpeed="15.18" departDelay="0.12" arrival="25250.00" arrivalLane="NE_out_1" arrivalPos="94.79" arrivalSpeed="14.68" duration="15.00" routeLength="208.93" waitingTime="0.00" waitingCount="0" stopTime="0.00" timeLoss="0.73" rerouteNo="0" devices="tripinfo_0507_eb_thru_25200.5" vType="DEFAULT_VEHTYPE" speedFactor="0.97" vaporized=""/>
    <tripinfo id="0507_wb_thru_25200.0" depart="25200.00" departLane="NE_in_0" departPos="5.10" departSpeed="15.60" departDelay="0.00" arrival="25251.00" arrivalLane="SW_out_0" arrivalPos="89.18" arrivalSpeed="16.82" duration="51.00" routeLength="208.55" waitingTime="32.00" waitingCount="1" stopTime="0.00" timeLoss="38.37" rerouteNo="0" devices="tripinfo_0507_wb_thru_25200.0" vType="DEFAULT_VEHTYPE" speedFactor="1.10" vaporized=""/>
    <tripinfo id="0507_wb_thru_25200.1" depart="25214.00" departLane="NE_in_0" departPos="5.10" departSpeed="14.36" departDelay="0.36" arrival="25252.00" arrivalLane="SW_out_1" arrivalPos="89.18" arrivalSpeed="13.23" duration="38.00" routeLength="208.55" waitingTime="14.00" waitingCount="1" stopTime="0.00" timeLoss="23.20" rerouteNo="0" devices="tripinfo_0507_wb_thru_25200.1" vType="DEFAULT_VEHTYPE" speedFactor="0.92" vaporized=""/>
    <tripinfo id="0507_eb_thru_25200.4" depart="25228.00" departLane="SW_in_0" departPos="5.10" departSpeed="14.23" departDelay="0.10" arrival="25253.00" arrivalLane="NE_out_0" arrivalPos="94.79" arrivalSpeed="12.99" duration="25.00" routeLength="208.93" waitingTime="3.00" waitingCount="1" stopTime="0.00" timeLoss="9.59" rerouteNo="0" devices="tripinfo_0507_eb_thru_25200.4" vType="DEFAULT_VEHTYPE" speedFactor="0.91" vaporized=""/>
    <tripinfo id="0507_nb_left_25200.0" depart="25200.00" departLane="S_in_3" departPos="5.10" departSpeed="14.35" departDelay="0.00" arrival="25263.00" arrivalLane="SW_out_2" arrivalPos="89.18" arrivalSpeed="14.23" duration="63.00" routeLength="163.88" waitingTime="44.00" waitingCount="1" stopTime="0.00" timeLoss="50.19" rerouteNo="0" devices="tripinfo_0507_nb_left_25200.0" vType="DEFAULT_VEHTYPE" speedFactor="0.92" vaporized=""/>
    <tripinfo id="0507_sb_left_25200.0" depart="25200.00" departLane="N_far_2" departPos="5.10" departSpeed="13.74" departDelay="0.00" arrival="25264.00" arrivalLane="NE_out_2" arrivalPos="94.79" arrivalSpeed="13.61" duration="64.00" routeLength="173.67" waitingTime="43.00" waitingCount="1" stopTime="0.00" timeLoss="49.65" rerouteNo="0" devices="tripinfo_0507_sb_left_25200.0" vType="DEFAULT_VEHTYPE" speedFactor="0.88" vaporized=""/>
    <tripinfo id="0507_sb_left_25200.1" depart="25228.00" departLane="N_far_2" departPos="5.10" departSpeed="14.34" departDelay="0.73" arrival="25265.00" arrivalLane="NE_out_2" arrivalPos="94.79" arrivalSpeed="13.65" duration="37.00" routeLength="173.67" waitingTime="18.00" waitingCount="1" stopTime="0.00" timeLoss="23.89" rerouteNo="0" devices="tripinfo_0507_sb_left_25200.1" vType="DEFAULT_VEHTYPE" speedFactor="0.92" vaporized=""/>
    <tripinfo id="0507_nb_left_25200.1" depart="25234.00" departLane="S_in_3" departPos="5.10" departSpeed="0.00" departDelay="0.67" arrival="25265.00" arrivalLane="SW_out_2" arrivalPos="89.18" arrivalSpeed="16.24" duration="31.00" routeLength="163.88" waitingTime="10.00" waitingCount="1" stopTime="0.00" timeLoss="19.28" rerouteNo="0" devices="tripinfo_0507_nb_left_25200.1" vType="DEFAULT_VEHTYPE" speedFactor="1.04" vaporized=""/>
    <tripinfo id="0507_nb_left_25200.2" depart="25267.00" departLane="S_in_3" departPos="5.10" departSpeed="15.60" departDelay="0.33" arrival="25278.00" arrivalLane="SW_out_2" arrivalPos="89.18" arrivalSpeed="17.91" duration="11.00" routeLength="163.88" waitingTime="0.00" waitingCount="0" stopTime="0.00" timeLoss="0.97" rerouteNo="0" devices="tripinfo_0507_nb_left_25200.2" vType="DEFAULT_VEHTYPE" speedFactor="1.18" vaporized=""/>
    <tripinfo id="0507_nb_thru_25200.0" depart="25200.00" departLane="S_in_1" departPos="5.10" departSpeed="15.60" departDelay="0.00" arrival="25292.00" arrivalLane="N_out_0" arrivalPos="8.47" arrivalSpeed="12.64" duration="92.00" routeLength="92.80" waitingTime="80.00" waitingCount="1" stopTime="0.00" timeLoss="86.22" rerouteNo="0" devices="tripinfo_0507_nb_thru_25200.0" vType="DEFAULT_VEHTYPE" speedFactor="1.05" vaporized=""/>
    <tripinfo id="0507_nb_thru_25200.1" depart="25212.00" departLane="S_in_2" departPos="5.10" departSpeed="15.60" departDelay="0.89" arrival="25292.00" arrivalLane="N_out_1" arrivalPos="8.47" arrivalSpeed="13.84" duration="80.00" routeLength="92.80" waitingTime="67.00" waitingCount="1" stopTime="0.00" timeLoss="74.36" rerouteNo="0" devices="tripinfo_0507_nb_thru_25200.1" vType="DEFAULT_VEHTYPE" speedFactor="1.14" vaporized=""/>
    <tripinfo id="0507_sb_thru_25200.1" depart="25209.00" departLane="N_far_1" departPos="5.10" departSpeed="15.60" departDelay="0.67" arrival="25294.00" arrivalLane="S_out_1" arrivalPos="49.20" arrivalSpeed="15.75" duration="85.00" routeLength="137.80" waitingTime="67.00" waitingCount="1" stopTime="0.00" timeLoss="76.52" rerouteNo="0" devices="tripinfo_0507_sb_thru_25200.1" vType="DEFAULT_VEHTYPE" speedFactor="1.07" vaporized=""/>
    <tripinfo id="0507_sb_thru_25200.0" depart="25200.00" departLane="N_far_1" departPos="5.10" departSpeed="15.60" departDelay="0.00" arrival="25295.00" arrivalLane="S_out_0" arrivalPos="49.20" arrivalSpeed="15.19" duration="95.00" routeLength="137.80" waitingTime="79.00" waitingCount="1" stopTime="0.00" timeLoss="85.97" rerouteNo="0" devices="tripinfo_0507_sb_thru_25200.0" vType="DEFAULT_VEHTYPE" speedFactor="1.03" vaporized=""/>
    <tripinfo id="0507_sb_thru_25200.2" depart="25217.00" departLane="N_far_1" departPos="5.10" departSpeed="15.26" departDelay="0.33" arrival="25304.00" arrivalLane="S_out_0" arrivalPos="49.20" arrivalSpeed="15.06" duration="87.00" routeLength="137.80" waitingTime="69.00" waitingCount="2" stopTime="0.00" timeLoss="77.78" rerouteNo="0" devices="tripinfo_0507_sb_thru_25200.2" vType="DEFAULT_VEHTYPE" speedFactor="0.98" vaporized=""/>
    <tripinfo id="0507_sb_thru_25200.3" depart="25225.00" departLane="N_far_1" departPos="5.10" departSpeed="14.82" departDelay="0.00" arrival="25305.00" arrivalLane="S_out_1" arrivalPos="49.20" arrivalSpeed="15.88" duration="80.00" routeLength="137.80" waitingTime="58.00" waitingCount="3" stopTime="0.00" timeLoss="71.26" rerouteNo="0" devices="tripinfo_0507_sb_thru_25200.3" vType="DEFAULT_VEHTYPE" speedFactor="1.04" vaporized=""/>
    <tripinfo id="0507_sb_thru_25200.4" depart="25234.00" departLane="N_far_1" departPos="5.10" departSpeed="14.82" departDelay="0.67" arrival="25307.00" arrivalLane="S_out_0" arrivalPos="49.20" arrivalSpeed="14.58" duration="73.00" routeLength="137.80" waitingTime="50.00" waitingCount="2" stopTime="0.00" timeLoss="63.79" rerouteNo="0" devices="tripinfo_0507_sb_thru_25200.4" vType="DEFAULT_VEHTYPE" speedFactor="1.01" vaporized=""/>
    <tripinfo id="0507_sb_thru_25200.5" depart="25242.00" departLane="N_far_1" departPos="5.10" departSpeed="12.75" departDelay="0.34" arrival="25307.00" arrivalLane="S_out_1" arrivalPos="49.20" arrivalSpeed="16.35" duration="65.00" routeLength="137.80" waitingTime="43.00" waitingCount="2" stopTime="0.00" timeLoss="56.36" rerouteNo="0" devices="tripinfo_0507_sb_thru_25200.5" vType="DEFAULT_VEHTYPE" speedFactor="1.11" vaporized=""/>
    <tripinfo id="0507_sb_thru_25200.6" depart="25250.00" departLane="N_far_1" departPos="5.10" departSpeed="12.76" departDelay="0.00" arrival="25309.00" arrivalLane="S_out_0" arrivalPos="49.20" arrivalSpeed="18.71" duration="59.00" routeLength="137.80" waitingTime="38.00" waitingCount="2" stopTime="0.00" timeLoss="50.86" rerouteNo="0" devices="tripinfo_0507_sb_thru_25200.6" vType="DEFAULT_VEHTYPE" speedFactor="1.20" vaporized=""/>
    <tripinfo id="0507_sb_thru_25200.8" depart="25267.00" departLane="N_far_2" departPos="5.10" departSpeed="0.00" departDelay="0.34" arrival="25310.00" arrivalLane="S_out_1" arrivalPos="49.20" arrivalSpeed="17.26" duration="43.00" routeLength="137.80" waitingTime="18.00" waitingCount="2" stopTime="0.00" timeLoss="34.30" rerouteNo="0" devices="tripinfo_0507_sb_thru_25200.8" vType="DEFAULT_VEHTYPE" speedFactor="1.12" vaporized=""/>
    <tripinfo id="0507_sb_thru_25200.7" depart="25259.00" departLane="N_far_1" departPos="5.10" departSpeed="0.00" departDelay="0.67" arrival="25311.00" arrivalLane="S_out_0" arrivalPos="49.20" arrivalSpeed="14.50" duration="52.00" routeLength="137.80" waitingTime="25.00" waitingCount="2" stopTime="0.00" timeLoss="42.14" rerouteNo="0" devices="tripinfo_0507_sb_thru_25200.7" vType="DEFAULT_VEHTYPE" speedFactor="0.97" vaporized=""/>
    <tripinfo id="0507_sb_left_25200.2" depart="25255.00" departLane="N_far_2" departPos="5.10" departSpeed="12.76" departDelay="0.46" arrival="25312.00" arrivalLane="NE_out_2" arrivalPos="94.79" arrivalSpeed="15.15" duration="57.00" routeLength="173.67" waitingTime="32.00" waitingCount="2" stopTime="0.00" timeLoss="44.38" rerouteNo="0" devices="tripinfo_0507_sb_left_25200.2" vType="DEFAULT_VEHTYPE" speedFactor="1.01" vaporized=""/>
    <tripinfo id="0507_sb_thru_25200.9" depart="25275.00" departLane="N_far_1" departPos="5.10" departSpeed="0.00" departDelay="0.00" arrival="25312.00" arrivalLane="S_out_0" arrivalPos="49.20" arrivalSpeed="16.11" duration="37.00" routeLength="137.80" waitingTime="12.00" waitingCount="2" stopTime="0.00" timeLoss="28.69" rerouteNo="0" devices="tripinfo_0507_sb_thru_25200.9" vType="DEFAULT_VEHTYPE" speedFactor="1.08" vaporized=""/>
    <tripinfo id="0507_sb_thru_25200.11" depart="25292.00" departLane="N_far_2" departPos="5.10" departSpeed="1.92" departDelay="0.34" arrival="25313.00" arrivalLane="S_out_1" arrivalPos="49.20" arrivalSpeed="16.29" duration="21.00" routeLength="137.80" waitingTime="1.00" waitingCount="1" stopTime="0.00" timeLoss="12.72" rerouteNo="0" devices="tripinfo_0507_sb_thru_25200.11" vType="DEFAULT_VEHTYPE" speedFactor="1.11" vaporized=""/>
    <tripinfo id="0507_sb_thru_25200.10" depart="25284.00" departLane="N_far_1" departPos="5.10" departSpeed="0.00" departDelay="0.67" arrival="25315.00" arrivalLane="S_out_0" arrivalPos="49.20" arrivalSpeed="13.45" duration="31.00" routeLength="137.80" waitingTime="8.00" waitingCount="2" stopTime="0.00" timeLoss="20.90" rerouteNo="0" devices="tripinfo_0507_sb_thru_25200.10" vType="DEFAULT_VEHTYPE" speedFactor="0.94" vaporized=""/>
    <tripinfo id="0507_sb_left_25200.3" depart="25282.00" departLane="N_far_2" departPos="5.10" departSpeed="0.00" departDelay="0.18" arrival="25316.00" arrivalLane="NE_out_2" arrivalPos="94.79" arrivalSpeed="15.39" duration="34.00" routeLength="173.67" waitingTime="5.00" waitingCount="2" stopTime="0.00" timeLoss="21.25" rerouteNo="0" devices="tripinfo_0507_sb_left_25200.3" vType="DEFAULT_VEHTYPE" speedFactor="1.00" vaporized=""/>
    <tripinfo id="0507_sb_thru_25200.12" depart="25300.00" departLane="N_far_1" departPos="5.10" departSpeed="0.28" departDelay="0.00" arrival="25316.00" arrivalLane="S_out_0" arrivalPos="49.20" arrivalSpeed="13.91" duration="16.00" routeLength="137.80" waitingTime="0.00" waitingCount="0" stopTime="0.00" timeLoss="6.59" rerouteNo="0" devices="tripinfo_0507_sb_thru_25200.12" vType="DEFAULT_VEHTYPE" speedFactor="0.94" vaporized=""/>
    <tripinfo id="0507_sb_thru_25200.13" depart="25309.00" departLane="N_far_1" departPos="5.10" departSpeed="15.60" departDelay="0.67" arrival="25319.00" arrivalLane="S_out_0" arrivalPos="49.20" arrivalSpeed="15.01" duration="10.00" routeLength="137.80" waitingTime="0.00" waitingCount="0" stopTime="0.00" timeLoss="0.30" rerouteNo="0" devices="tripinfo_0507_sb_thru_25200.13" vType="DEFAULT_VEHTYPE" speedFactor="1.00" vaporized=""/>
    <tripinfo id="0507_nb_thru_25200.3" depart="25234.00" departLane="S_in_1" departPos="5.10" departSpeed="0.00" departDelay="0.67" arrival="25326.00" arrivalLane="N_out_1" arrivalPos="8.47" arrivalSpeed="13.79" duration="92.00" routeLength="92.80" waitingTime="72.00" waitingCount="2" stopTime="0.00" timeLoss="85.93" rerouteNo="0" devices="tripinfo_0507_nb_thru_25200.3" vType="DEFAULT_VEHTYPE" speedFactor="0.99" vaporized=""/>
    <tripinfo id="0507_nb_thru_25200.2" depart="25223.00" departLane="S_in_1" departPos="5.10" departSpeed="0.00" departDelay="0.78" arrival="25327.00" arrivalLane="N_out_0" arrivalPos="8.47" arrivalSpeed="14.68" duration="104.00" routeLength="92.80" waitingTime="85.00" waitingCount="2" stopTime="0.00" timeLoss="97.50" rerouteNo="0" devices="tripinfo_0507_nb_thru_25200.2" vType="DEFAULT_VEHTYPE" speedFactor="0.99" vaporized=""/>
    <tripinfo id="0507_sb_thru_25200.14" depart="25317.00" departLane="N_far_1" departPos="5.10" departSpeed="14.70" departDelay="0.34" arrival="25328.00" arrivalLane="S_out_0" arrivalPos="49.20" arrivalSpeed="14.15" duration="11.00" routeLength="137.80" waitingTime="0.00" waitingCount="0" stopTime="0.00" timeLoss="0.86" rerouteNo="0" devices="tripinfo_0507_sb_thru_25200.14" vType="DEFAULT_VEHTYPE" speedFactor="0.94" vaporized=""/>
    <tripinfo id="0507_nb_thru_25200.4" depart="25245.00" departLane="S_in_1" departPos="5.10" departSpeed="0.00" departDelay="0.56" arrival="25329.00" arrivalLane="N_out_0" arrivalPos="8.47" arrivalSpeed="11.69" duration="84.00" routeLength="92.80" waitingTime="64.00" waitingCount="2" stopTime="0.00" timeLoss="76.21" rerouteNo="0" devices="tripinfo_0507_nb_thru_25200.4" vType="DEFAULT_VEHTYPE" speedFactor="0.79" vaporized=""/>
    <tripinfo id="0507_nb_thru_25200.5" depart="25256.00" departLane="S_in_2" departPos="5.10" departSpeed="0.00" departDelay="0.45" arrival="25329.00" arrivalLane="N_out_1" arrivalPos="8.47" arrivalSpeed="15.67" duration="73.00" routeLength="92.80" waitingTime="54.00" waitingCount="2" stopTime="0.00" timeLoss="67.13" rerouteNo="0" devices="tripinfo_0507_nb_thru_25200.5" vType="DEFAULT_VEHTYPE" speedFactor="1.14" vaporized=""/>
    <tripinfo id="0507_nb_thru_25200.6" depart="25267.00" departLane="S_in_1" departPos="5.10" departSpeed="0.00" departDelay="0.33" arrival="25331.00" arrivalLane="N_out_0" arrivalPos="8.47" arrivalSpeed="14.36" duration="64.00" routeLength="92.80" waitingTime="42.00" waitingCount="2" stopTime="0.00" timeLoss="57.40" rerouteNo="0" devices="tripinfo_0507_nb_thru_25200.6" vType="DEFAULT_VEHTYPE" speedFactor="1.00" vaporized=""/>
    <tripinfo id="0507_nb_thru_25200.7" depart="25278.00" departLane="S_in_1" departPos="5.10" departSpeed="0.00" departDelay="0.22" arrival="25331.00" arrivalLane="N_out_1" arrivalPos="8.47" arrivalSpeed="15.49" duration="53.00" routeLength="92.80" waitingTime="32.00" waitingCount="2" stopTime="0.00" timeLoss="46.22" rerouteNo="0" devices="tripinfo_0507_nb_thru_25200.7" vType="DEFAULT_VEHTYPE" speedFactor="1.00" vaporized=""/>
    <tripinfo id="0507_nb_thru_25200.8" depart="25289.00" departLane="S_in_2" departPos="5.10" departSpeed="2.35" departDelay="0.11" arrival="25332.00" arrivalLane="N_out_1" arrivalPos="8.47" arrivalSpeed="15.40" duration="43.00" routeLength="92.80" waitingTime="28.00" waitingCount="1" stopTime="0.00" timeLoss="37.34" rerouteNo="0" devices="tripinfo_0507_nb_thru_25200.8" vType="DEFAULT_VEHTYPE" speedFactor="1.05" vaporized=""/>
    <tripinfo id="0507_nb_thru_25200.9" depart="25300.00" departLane="S_in_1" departPos="5.10" departSpeed="0.00" departDelay="0.00" arrival="25342.00" arrivalLane="N_out_0" arrivalPos="8.47" arrivalSpeed="14.85" duration="42.00" routeLength="92.80" waitingTime="24.00" waitingCount="2" stopTime="0.00" timeLoss="35.75" rerouteNo="0" devices="tripinfo_0507_nb_thru_25200.9" vType="DEFAULT_VEHTYPE" speedFactor="1.07" vaporized=""/>
    <tripinfo id="0507_nb_thru_25200.11" depart="25323.00" departLane="S_in_2" departPos="5.10" departSpeed="1.41" departDelay="0.78" arrival="25342.00" arrivalLane="N_out_1" arrivalPos="8.47" arrivalSpeed="12.94" duration="19.00" routeLength="92.80" waitingTime="2.00" waitingCount="1" stopTime="0.00" timeLoss="12.91" rerouteNo="0" devices="tripinfo_0507_nb_thru_25200.11" vType="DEFAULT_VEHTYPE" speedFactor="1.00" vaporized=""/>
    <tripinfo id="0507_nb_thru_25200.10" depart="25312.00" departLane="S_in_1" departPos="5.10" departSpeed="0.00" departDelay="0.89" arrival="25344.00" arrivalLane="N_out_0" arrivalPos="8.47" arrivalSpeed="14.58" duration="32.00" routeLength="92.80" waitingTime="13.00" waitingCount="2" stopTime="0.00" timeLoss="25.40" rerouteNo="0" devices="tripinfo_0507_nb_thru_25200.10" vType="DEFAULT_VEHTYPE" speedFactor="0.96" vaporized=""/>
    <tripinfo id="0507_nb_thru_25200.12" depart="25334.00" departLane="S_in_1" departPos="5.10" departSpeed="0.00" departDelay="0.67" arrival="25346.00" arrivalLane="N_out_0" arrivalPos="8.47" arrivalSpeed="13.74" duration="12.00" routeLength="92.80" waitingTime="0.00" waitingCount="0" stopTime="0.00" timeLoss="4.83" rerouteNo="0" devices="tripinfo_0507_nb_thru_25200.12" vType="DEFAULT_VEHTYPE" speedFactor="0.92" vaporized=""/>
    <tripinfo id="0507_nb_left_25200.3" depart="25300.00" departLane="S_in_3" departPos="5.10" departSpeed="13.62" departDelay="0.00" arrival="25349.00" arrivalLane="SW_out_2" arrivalPos="89.18" arrivalSpeed="12.92" duration="49.00" routeLength="163.88" waitingTime="30.00" waitingCount="1" stopTime="0.00" timeLoss="35.35" rerouteNo="0" devices="tripinfo_0507_nb_left_25200.3" vType="DEFAULT_VEHTYPE" speedFactor="0.87" vaporized=""/>
    <tripinfo id="0507_nb_left_25200.4" depart="25334.00" departLane="S_in_3" departPos="5.10" departSpeed="0.00" departDelay="0.67" arrival="25351.00" arrivalLane="SW_out_2" arrivalPos="89.18" arrivalSpeed="13.54" duration="17.00" routeLength="163.88" waitingTime="0.00" waitingCount="0" stopTime="0.00" timeLoss="4.50" rerouteNo="0" devices="tripinfo_0507_nb_left_25200.4" vType="DEFAULT_VEHTYPE" speedFactor="0.93" vaporized=""/>
    <tripinfo id="0507_nb_thru_25200.13" depart="25345.00" departLane="S_in_1" departPos="5.10" departSpeed="15.60" departDelay="0.56" arrival="25351.00" arrivalLane="N_out_0" arrivalPos="8.47" arrivalSpeed="16.61" duration="6.00" routeLength="92.80" waitingTime="0.00" waitingCount="0" stopTime="0.00" timeLoss="0.20" rerouteNo="0" devices="tripinfo_0507_nb_thru_25200.13" vType="DEFAULT_VEHTYPE" speedFactor="1.13" vaporized=""/>
    <tripinfo id="0507_wb_thru_25200.2" depart="25228.00" departLane="NE_in_0" departPos="5.10" departSpeed="15.60" departDelay="0.73" arrival="25373.00" arrivalLane="SW_out_0" arrivalPos="89.18" arrivalSpeed="16.90" duration="145.00" routeLength="208.55" waitingTime="122.00" waitingCount="2" stopTime="0.00" timeLoss="132.95" rerouteNo="0" devices="tripinfo_0507_wb_thru_25200.2" vType="DEFAULT_VEHTYPE" speedFactor="1.12" vaporized=""/>
    <tripinfo id="0507_wb_thru_25200.3" depart="25241.00" departLane="NE_in_0" departPos="5.10" departSpeed="15.06" departDelay="0.09" arrival="25374.00" arrivalLane="SW_out_1" arrivalPos="89.18" arrivalSpeed="14.33" duration="133.00" routeLength="208.55" waitingTime="112.00" waitingCount="1" stopTime="0.00" timeLoss="118.96" rerouteNo="0" devices="tripinfo_0507_wb_thru_25200.3" vType="DEFAULT_VEHTYPE" speedFactor="0.97" vaporized=""/>
    <tripinfo id="0507_eb_thru_25200.6" depart="25242.00" departLane="SW_in_0" departPos="5.10" departSpeed="15.60" departDelay="0.14" arrival="25374.00" arrivalLane="NE_out_0" arrivalPos="94.79" arrivalSpeed="15.44" duration="132.00" routeLength="208.93" waitingTime="112.00" waitingCount="1" stopTime="0.00" timeLoss="118.62" rerouteNo="0" devices="tripinfo_0507_eb_thru_25200.6" vType="DEFAULT_VEHTYPE" speedFactor="1.01" vaporized=""/>
    <tripinfo id="0507_eb_thru_25200.7" depart="25249.00" departLane="SW_in_1" departPos="5.10" departSpeed="15.60" departDelay="0.17" arrival="25374.00" arrivalLane="NE_out_1" arrivalPos="94.79" arrivalSpeed="17.45" duration="125.00" routeLength="208.93" waitingTime="106.00" waitingCount="1" stopTime="0.00" timeLoss="112.84" rerouteNo="0" devices="tripinfo_0507_eb_thru_25200.7" vType="DEFAULT_VEHTYPE" speedFactor="1.14" vaporized=""/>
    <tripinfo id="0507_wb_thru_25200.5" depart="25269.00" departLane="NE_in_0" departPos="5.10" departSpeed="14.14" departDelay="0.82" arrival="25374.00" arrivalLane="SW_out_2" arrivalPos="89.18" arrivalSpeed="13.40" duration="105.00" routeLength="208.55" waitingTime="82.00" waitingCount="1" stopTime="0.00" timeLoss="89.79" rerouteNo="0" devices="tripinfo_0507_wb_thru_25200.5" vType="DEFAULT_VEHTYPE" speedFactor="0.91" vaporized=""/>
    <tripinfo id="0507_wb_thru_25200.4" depart="25255.00" departLane="NE_in_0" departPos="5.10" departSpeed="15.60" departDelay="0.46" arrival="25375.00" arrivalLane="SW_out_0" arrivalPos="89.18" arrivalSpeed="16.59" duration="120.00" routeLength="208.55" waitingTime="100.00" waitingCount="1" stopTime="0.00" timeLoss="107.48" rerouteNo="0" devices="tripinfo_0507_wb_thru_25200.4" vType="DEFAULT_VEHTYPE" speedFactor="1.09" vaporized=""/>
    <tripinfo id="0507_eb_thru_25200.9" depart="25263.00" departLane="SW_in_0" departPos="5.10" departSpeed="6.93" departDelay="0.22" arrival="25375.00" arrivalLane="NE_out_2" arrivalPos="94.79" arrivalSpeed="14.50" duration="112.00" routeLength="208.93" waitingTime="90.00" waitingCount="1" stopTime="0.00" timeLoss="96.99" rerouteNo="0" devices="tripinfo_0507_eb_thru_25200.9" vType="DEFAULT_VEHTYPE" speedFactor="0.95" vaporized=""/>
    <tripinfo id="0507_eb_thru_25200.8" depart="25256.00" departLane="SW_in_0" departPos="5.10" departSpeed="0.00" departDelay="0.19" arrival="25376.00" arrivalLane="NE_out_0" arrivalPos="94.79" arrivalSpeed="15.36" duration="120.00" routeLength="208.93" waitingTime="97.00" waitingCount="1" stopTime="0.00" timeLoss="106.74" rerouteNo="0" devices="tripinfo_0507_eb_thru_25200.8" vType="DEFAULT_VEHTYPE" speedFactor="1.05" vaporized=""/>
    <tripinfo id="0507_eb_thru_25200.11" depart="25277.00" departLane="SW_in_1" departPos="5.10" departSpeed="0.00" departDelay="0.26" arrival="25376.00" arrivalLane="NE_out_2" arrivalPos="94.79" arrivalSpeed="15.20" duration="99.00" routeLength="208.93" waitingTime="74.00" waitingCount="1" stopTime="0.00" timeLoss="85.75" rerouteNo="0" devices="tripinfo_0507_eb_thru_25200.11" vType="DEFAULT_VEHTYPE" speedFactor="1.01" vaporized=""/>
    <tripinfo id="0507_wb_thru_25200.6" depart="25282.00" departLane="NE_in_0" departPos="5.10" departSpeed="15.60" departDelay="0.18" arrival="25376.00" arrivalLane="SW_out_1" arrivalPos="89.18" arrivalSpeed="17.58" duration="94.00" routeLength="208.55" waitingTime="73.00" waitingCount="1" stopTime="0.00" timeLoss="82.32" rerouteNo="0" devices="tripinfo_0507_wb_thru_25200.6" vType="DEFAULT_VEHTYPE" speedFactor="1.20" vaporized=""/>
    <tripinfo id="0507_wb_thru_25200.8" depart="25310.00" departLane="NE_in_0" departPos="5.10" departSpeed="14.58" departDelay="0.91" arrival="25376.00" arrivalLane="SW_out_2" arrivalPos="89.18" arrivalSpeed="14.13" duration="66.00" routeLength="208.55" waitingTime="43.00" waitingCount="1" stopTime="0.00" timeLoss="51.16" rerouteNo="0" devices="tripinfo_0507_wb_thru_25200.8" vType="DEFAULT_VEHTYPE" speedFactor="0.93" vaporized=""/>
    <tripinfo id="0507_eb_thru_25200.10" depart="25270.00" departLane="SW_in_0" departPos="5.10" departSpeed="0.00" departDelay="0.24" arrival="25377.00" arrivalLane="NE_out_1" arrivalPos="94.79" arrivalSpeed="13.52" duration="107.00" routeLength="208.93" waitingTime="81.00" waitingCount="1" stopTime="0.00" timeLoss="91.42" rerouteNo="0" devices="tripinfo_0507_eb_thru_25200.10" vType="DEFAULT_VEHTYPE" speedFactor="0.89" vaporized=""/>
    <tripinfo id="0507_wb_left_25200.1" depart="25275.00" departLane="NE_in_3" departPos="5.10" departSpeed="14.62" departDelay="0.00" arrival="25377.00" arrivalLane="S_out_0" arrivalPos="49.20" arrivalSpeed="13.50" duration="102.00" routeLength="174.95" waitingTime="79.00" waitingCount="2" stopTime="0.00" timeLoss="89.48" rerouteNo="0" devices="tripinfo_0507_wb_left_25200.1" vType="DEFAULT_VEHTYPE" speedFactor="0.94" vaporized=""/>
    <tripinfo id="0507_eb_left_25200.2" depart="25286.00" departLane="SW_in_4" departPos="5.10" departSpeed="15.60" departDelay="0.29" arrival="25379.00" arrivalLane="N_out_1" arrivalPos="8.47" arrivalSpeed="11.82" duration="93.00" routeLength="124.47" waitingTime="79.00" waitingCount="1" stopTime="0.00" timeLoss="85.17" rerouteNo="0" devices="tripinfo_0507_eb_left_25200.2" vType="DEFAULT_VEHTYPE" speedFactor="1.09" vaporized=""/>
    <tripinfo id="0507_wb_left_25200.2" depart="25350.00" departLane="NE_in_3" departPos="5.10" departSpeed="15.37" departDelay="0.00" arrival="25379.00" arrivalLane="S_out_1" arrivalPos="49.20" arrivalSpeed="14.85" duration="29.00" routeLength="170.44" waitingTime="5.00" waitingCount="2" stopTime="0.00" timeLoss="17.31" rerouteNo="0" devices="tripinfo_0507_wb_left_25200.2" vType="DEFAULT_VEHTYPE" speedFactor="0.98" vaporized=""/>
    <tripinfo id="0507_eb_left_25200.1" depart="25243.00" departLane="SW_in_3" departPos="5.10" departSpeed="15.54" departDelay="0.14" arrival="25380.00" arrivalLane="N_out_0" arrivalPos="8.47" arrivalSpeed="14.29" duration="137.00" routeLength="128.92" waitingTime="122.00" waitingCount="1" stopTime="0.00" timeLoss="127.77" rerouteNo="0" devices="tripinfo_0507_eb_left_25200.1" vType="DEFAULT_VEHTYPE" speedFactor="1.00" vaporized=""/>
    <tripinfo id="0507_eb_left_25200.3" depart="25329.00" departLane="SW_in_3" departPos="5.10" departSpeed="0.00" departDelay="0.43" arrival="25382.00" arrivalLane="N_out_0" arrivalPos="8.47" arrivalSpeed="12.13" duration="53.00" routeLength="128.92" waitingTime="34.00" waitingCount="1" stopTime="0.00" timeLoss="41.86" rerouteNo="0" devices="tripinfo_0507_eb_left_25200.3" vType="DEFAULT_VEHTYPE" speedFactor="0.79" vaporized=""/>
    <tripinfo id="0507_eb_thru_25200.12" depart="25284.00" departLane="SW_in_2" departPos="5.10" departSpeed="0.00" departDelay="0.29" arrival="25385.00" arrivalLane="NE_out_2" arrivalPos="94.79" arrivalSpeed="15.83" duration="101.00" routeLength="208.93" waitingTime="73.00" waitingCount="2" stopTime="0.00" timeLoss="87.91" rerouteNo="0" devices="tripinfo_0507_eb_thru_25200.12" vType="DEFAULT_VEHTYPE" speedFactor="1.06" vaporized=""/>